Job 978342.d12n16.ccr.buffalo.edu has requested 8 cores/processors per node.
ADFHOME is /ifs/projects/jochena/software/adf/adffix2012
running in directory /scratch/978342.d12n16.ccr.buffalo.edu

 *******************************************************************************
 *                                                                             *
 *  -------------------------------------                                      *
 *   Amsterdam Density Functional  (ADF)         2012.01   January 26, 2012    *
 *  -------------------------------------                                      *
 *                                               Build 201205311514            *
 *                                                                             *
 *                                                                             *
 *                            =====================                            *
 *                            |                   |                            *
 *                            |     D I R A C     |                            *
 *                            |                   |                            *
 *                            =====================                            *
 *                                                                             *
 *                                                                             *
 *   Online information and documentation:  http://www.scm.com                 *
 *   E-mail:  support@scm.com   info@scm.com                                   *
 *                                                                             *
 *   Scientific publications using ADF results must be properly referenced     *
 *   See the User Manuals (or the web site) for recommended citations          *
 *   The terms and conditions of the End User License Agreement apply to       *
 *   the use of ADF, http://www.scm.com/Sales/LicAgreement.html                *
 *                                                                             *
 **********************  pentium64_linux / platform_mpi  ***********************
 
 DIRAC 2012.01  RunTime: Dec21-2012 09:35:19  Nodes: 1  Procs: 1

 Temporary files are created in /scratch/kid_0.4GRwgG

1
 HYDROGEN ATOM RELATIVISTIC, Point Nuc, A and c from libtc   
 N J RN H ZN XION ANUC CLIGHT
 5000    1100.00000000197.36710137  1.00000000  0.00000000    1.007825  0.1370360E+03
  PH   PHI     EPS        DEL        DELRVR
  0.30  0.30     2500.00  0.00001000  0.00001000
 IDIRC  NC1  NDEBU NPRIN  IPUN IRCOR IWCOR
   1   300     0     0     0     0     0
   XALPHA      XLATTER      RNUC
  0.70000000  0.00000000  0.00000000 Point Charge
   XN   XL   XJ      XE          XZ      XDELL
  1.0  0.0  0.5      -1.000       1.000     0.00000
 ICORP=  0  NPCL=  0  DEMP=0.00  PEPS=0.000000
 R(1)=  0.1000000E-08 D=  0.1005080E+01 RNUC=  0.0000000E+00
 converged at cycle   32  DENSITY AVERAGING    0.2400
  MAXIMUM ERROR IN R.V(R) IS   0.79874357E-05
 Q,EY,EV,EZ,ESUM,ETOT,RHO  0.100000E+01 -0.266614E+00 -0.619969E+00 -0.910779E+00 -0.203940E+00 -0.415998E+00  0.337036E-17


 DIRAC CALCULATION
1                    HYDROGEN ATOM RELATIVISTIC, Point Nuc, A and c from libtc


 EXCHANGE COEFFICIENT=  0.7000000           TAIL CORRECTION=  0.           NUCLEAR RADIUS=  0.000E+00
0                       ORBITAL    N    L    J     ELECTRONS     EIGENVALUE                DELTA OF EIGENV.

                          1S1/2  1.0  0.0  0.5     1.000       -0.2039397E+00                 0.2720093E-06


                                        NUCLEAR CHARGE=    1.000000
                            INTEGRAL OF CHARGE DENSITY=    1.000000
                           SUM OF THE ORBITAL ENERGIES=     -0.2039
                                          TOTAL ENERGY=     -0.4160
                                        KINETIC ENERGY=      0.4160
                             NUCLEAR ATTRACTION ENERGY=     -0.9108
                             ELECTRON REPULSION ENERGY=      0.2787
                                       EXCHANGE ENERGY=     -0.2000

 *******************************************************************************

                             D I R A C   E X I T
 NORMAL TERMINATION



 =================
 Timing Statistics
 =================
  
 Total Used :                     CPU=        0.12      System=        0.01     Elapsed=        0.15

 Calls  Section                     ( Mean, Percentage )
 ---------------------------------------------------------------------------------------------------
     2  ><      ................      0.00    0.00             0.00    0.00             0.00    0.01
     1  EXIT PROCEDURE .........      0.12  100.00             0.01  100.00             0.15   99.99


 Currently Open Files (EXIT00)
 ====================

 Unit    Access Format  Status   Type       Ident (file)
 -------------------------------------------------------
   3      SEQ    FORM   TRANSP  NORMAL      LOGFILE
                                          ( logfile )


 Buffered I/O statistics
 =======================
 Memory available:                     67108864
 Number of records fitting in memory:     16131
 Input : 100.0% of                            0  *4k bytes
 Output: 100.0% of                            0  *4k bytes
 Records from serial files evicted:           0
                    others evicted:           0
 Hash table lookups:          0 with          0 conflicts (100.00%)
NORMAL TERMINATION
(INPUT FILE)
Create H   file=/ifs/projects/jochena/software/adf/adffix2012/atomicdata/ZORA/jcpl/H
XC
hybrid pbe0
End
relativistic ZORA
Corepotentials t12.rel
End Input

 *******************************************************************************
 *                                                                             *
 *  -------------------------------------                                      *
 *   Amsterdam Density Functional  (ADF)         2012.01   January 26, 2012    *
 *  -------------------------------------                                      *
 *                                               Build 201205311514            *
 *                                                                             *
 *                                                                             *
 *                              =================                              *
 *                              |               |                              *
 *                              |     A D F     |                              *
 *                              |               |                              *
 *                              =================                              *
 *                                                                             *
 *                                                                             *
 *   Online information and documentation:  http://www.scm.com                 *
 *   E-mail:  support@scm.com   info@scm.com                                   *
 *                                                                             *
 *   Scientific publications using ADF results must be properly referenced     *
 *   See the User Manuals (or the web site) for recommended citations          *
 *   The terms and conditions of the End User License Agreement apply to       *
 *   the use of ADF, http://www.scm.com/Sales/LicAgreement.html                *
 *                                                                             *
 **********************  pentium64_linux / platform_mpi  ***********************
 
 ADF 2012.01  RunTime: Dec21-2012 09:35:20  Nodes: 1  Procs: 1

 Temporary files are created in /scratch/kid_0.J9hNIv

 Hydrogen (TZ2P + 2Z 3Z 4Z 100Z)



 ===========================
 A T T A C H E D   F I L E S
 ===========================
  
 CREATE - Data File:    /ifs/projects/jochena/software/adf/adffix2012/atomicdata/ZORA/jcpl/H
                        Hydrogen (TZ2P + 2Z 3Z 4Z 100Z)
 Core Potentials:
         file : t12.rel



 ===============================
 M O D E L   P A R A M E T E R S
 ===============================
  
 DENSITY FUNCTIONAL POTENTIAL (scf)
    Hybrid:                            PBE0                                    == Not Default ==

 SPIN  (restricted / unrestr.)
    Molecule:                          Restricted                               

 OTHER ASPECTS
    Relativistic Corrections:          scalar (ZORA,SAPA)                       *** SPECIAL ***

    Nuclear Charge Density Model:      Point Charge Nuclei                                                                                                                                                                                     
    Core Treatment:                    Frozen Orbital(s)                        

    Electric Field:                    ---                                      

    Hyperfine or Zeeman Interaction:   ---                                      



 =====================================
 S Y M M E T R Y ,   E L E C T R O N S
 =====================================
  
 Symmetry: ATOM

 Irreducible Representations, including subspecies
 -------------------------------------------------
 S
 P:x  P:y  P:z
 D:z2  D:x2-y2  D:xy  D:xz  D:yz
 F:z3  F:z  F:xyz  F:z2x  F:z2y  F:x  F:y


 Configuration of Valence Electrons
 ==================================

          Occupation Numbers
          -------------------------------------------------
 S        1
 P        0
 D        0
 F        0
          -------------------------------------------------

 Total:   1

 Net Charge: 0 (Nuclei minus Electrons)

 Preset values for MO occupations will be applied through SCF cycle no. 1000000
 Thereafter, the program will assign electrons to MOs that are spatially
 similar to the occupied MOs in a "reference" cycle ("KeepOrbitals").
 The reference cycle is always the PREVIOUS cycle: it will evolve with
 the SCF procedure.



 ================================
 (Slater-type)  F U N C T I O N S  ***  (Basis and Fit)  ***
 ================================
  

 Atom Type    1  (H)
 ==============

 Valence Basis Sets:   9
 -----------------------
   1 S  100.000000
   1 S    4.000000
   1 S    3.000000
   1 S    2.000000
   1 S    0.690000
   1 S    0.920000
   1 S    1.580000
   2 P    1.250000
   3 D    2.500000

 Charge Fitting Sets (for the computation of the Coulomb Potential):  20
 -----------------------------------------------------------------------
   1 S  200.000000
   1 S  104.000000
   1 S  103.000000
   1 S  102.000000
   1 S    8.000000
   1 S    7.000000
   1 S    6.000000
   1 S    5.000000
   1 S    4.000000
   1 S    3.160000
   1 S    2.090000
   1 S    1.380000
   2 S    1.500000
   2 P    4.000000
   2 P    2.650000
   2 P    1.750000
   3 D    4.000000
   3 D    2.500000
   4 F    3.000000
   5 G    4.000000


 BAS: List of all Elementary Cartesian Basis Functions
 =====================================================

 The numbering in the list below (to the right of the function characteristics) is referred
 to in print-outs of MO eigenvectors and Mulliken populations in the BAS representation
 (as contrasted to the SFO representation).

 Notes:
 1. The functions are characterized by a polynomial prefactor (powers of x,y,z and r) and
    an exponential decay factor alpha.
 2. Since the basis sets are specific for an atom TYPE, the individual functions occur on
    all atoms of that type.
 3. The word 'Core' in the left margin signals that it is a Core Function (CF) : not a
    degree of freedom in the valence set, but only used to ensure orthogonalization of
    the other valence basis functions on the frozen Core Orbitals.


 (power of) X  Y  Z  R     Alpha  on Atom
            ==========     =====     ==========

 H                                    1
                                  ---------------------------------------------------------------------------
            0  0  0  0   100.000      1
            0  0  0  0     4.000      2
            0  0  0  0     3.000      3
            0  0  0  0     2.000      4
            0  0  0  0     0.690      5
            0  0  0  0     0.920      6
            0  0  0  0     1.580      7
            1  0  0  0     1.250      8
            0  1  0  0     1.250      9
            0  0  1  0     1.250     10
            2  0  0  0     2.500     11
            1  1  0  0     2.500     12
            1  0  1  0     2.500     13
            0  2  0  0     2.500     14
            0  1  1  0     2.500     15
            0  0  2  0     2.500     16

 Total number of charge fitting functions (nprimf)        59
 Total number of Cartesian basis functions (naos)         16
 Total number of Cartesian core functions  (ncos)          0



 BAS: List of all Elementary Cartesian Basis Functions
 =====================================================

 The numbering in the list below (to the right of the function characteristics) is referred
 to in print-outs of MO eigenvectors and Mulliken populations in the BAS representation
 (as contrasted to the SFO representation).

 Notes:
 1. The functions are characterized by a polynomial prefactor (powers of x,y,z and r) and
    an exponential decay factor alpha.
 2. Since the basis sets are specific for an atom TYPE, the individual functions occur on
    all atoms of that type.
 3. The word 'Core' in the left margin signals that it is a Core Function (CF) : not a
    degree of freedom in the valence set, but only used to ensure orthogonalization of
    the other valence basis functions on the frozen Core Orbitals.


 (power of) X  Y  Z  R     Alpha  on Atom
            ==========     =====     ==========

 H                                    1
                                  ---------------------------------------------------------------------------
            0  0  0  0   100.000      1
            0  0  0  0     4.000      2
            0  0  0  0     3.000      3
            0  0  0  0     2.000      4
            0  0  0  0     0.690      5
            0  0  0  0     0.920      6
            0  0  0  0     1.580      7
            1  0  0  0     1.250      8
            0  1  0  0     1.250      9
            0  0  1  0     1.250     10
            2  0  0  0     2.500     11
            1  1  0  0     2.500     12
            1  0  1  0     2.500     13
            0  2  0  0     2.500     14
            0  1  1  0     2.500     15
            0  0  2  0     2.500     16
1
 ***************************************************************************************************



                                              ***********************
                                              *  T E C H N I C A L  *
                                              ***********************
  



 =============================================================
 P A R A L L E L I Z A T I O N  and  V E C T O R I Z A T I O N
 =============================================================
  
 Nr of parallel processes:                                1
 Maximum vector length in NumInt loops:                 128



 ===============
 I O  vs.  C P U  ***  (store numerical data on disk or recalculate)  ***
 ===============
  
 Basis functions:   recalculate when needed
 Fit functions:     recalculate when needed

 IO buffersize (Mb):                                     64.000000



 =====================
 S C F   U P D A T E S
 =====================
  
 Max. nr. of cycles:                               100
 Convergence criterion:                              0.0000000100
   secondary criterion:                              0.0000000100

 Mix parameter (when DIIS does not apply):           0.2000000000
 Special mix parameter for the first cycle:          1.0000000000


 DIIS (Direct Inversion in Iteration Space)
    Replace damping when SCF Error is below:         0.5000000000
    Apply anyway after SCF cycle:
                                                     5
    (Max.) nr. of expansion vectors:                10

    Upperbound on expansion coefficients:            5.0000000000
    (when exceeded, IterationSpace is re-built)
    2nd Upperbound on coefficients:                 25.0000000000
    (when exceeded, simple damping will be used)
 Automatic ElectronSmearing (in case of problematic SCF convergence) disabled



 =================
 P R E C I S I O N  ***  (General: NumInt, NeglectFunctionTails, ...)  ***
 =================
  

 NumInt:           Target precision:                10.0000000000
 -------           Initial precision:               10.0000000000
                   Min. precision (optimization):   10.0000000000

 Neglect Functions:          Basis functions:        0.1000000000E-11
 ------------------          Fit functions:          0.1000000000E-11



 ===========================
 L I N E A R   S C A L I N G
 ===========================
  

 Cut-off radii density fit:                        0.1000000000E-13
 Overlap cut-off criterion AO matrix elements:     0.1000000000E-11
 Cut-offs for Coulomb potential and fitted density:0.1000000000E-13
 Cut-off criterion for Coulomb multipole terms:    0.1000000000E-13
 Progressive Convergence parameter:                 0.000000000    
1
 ***************************************************************************************************



                                            ***************************
                                            *  C O M P U T A T I O N  *
                                            ***************************
  

 Number of elements of the density matrix on this node (used, total):       136       136



 ====================================================
 Numerical Integration : Voronoi Polyhedra (Te Velde)  ***  (parameters, tests)  ***
 ====================================================
  
 General Accuracy Parameter :                         10.00

 Symmetry used in the points section:  ATOM  


 Summary of the Symmetry Unique Points:
 --------------------------------------
    Nr. of used Symmetry Operators                     1

    Points in the Atomic Spheres                      78
    Points in the Atomic Polyhedra                     0
    Points in the Outer Region                         0
    ----------------------------------------------------
    Total                                             78

    Sum of Weights                                 33854.777883

 Total nr. of points:         78
 Nr. of blocks:                1
 Block length:                78
 Nr. of dummy points:          0


 Test of Precision of the Numerical Integration Grid
 ===================================================

 Integral of the Total Core Density:                   0.00000000000000



 =====
 S C F
 =====
  

 CYCLE    1
 orbitals (Q,E):
 ---------------
 S :1...7            ( 1.00    -0.5000)  ( 0.00    -0.1153)  ( 0.00     0.2019)  ( 0.00     1.3768)
                     ( 0.00     5.8321)  ( 0.00    33.1845)  ( 0.00  4387.3168)
 P :1...1            ( 0.00     0.1562)
 D :1...1            ( 0.00     2.2914)

 CYCLE    2
 d-Pmat  mean:  0.46E-01
 imax=      6: -0.51E+00
 orbitals (Q,E):
 ---------------
 S :1...2            ( 1.00    -0.2209)  ( 0.00     0.0645)
 P :1...1            ( 0.00     0.4638)
 D :1...1            ( 0.00     2.6522)

 CYCLE    3
 d-Pmat  mean:  0.16E-02
 imax=      5: -0.12E-01
 orbitals (Q,E):
 ---------------
 S :1...2            ( 1.00    -0.2416)  ( 0.00     0.0559)
 P :1...1            ( 0.00     0.4450)
 D :1...1            ( 0.00     2.6280)

 CYCLE    4
 d-Pmat  mean:  0.60E-03
 imax=      6: -0.64E-02
 orbitals (Q,E):
 ---------------
 S :1...2            ( 1.00    -0.2419)  ( 0.00     0.0555)
 P :1...1            ( 0.00     0.4448)
 D :1...1            ( 0.00     2.6278)

 CYCLE    5
 d-Pmat  mean:  0.11E-04
 imax=      6: -0.12E-03
 orbitals (Q,E):
 ---------------
 S :1...2            ( 1.00    -0.2419)  ( 0.00     0.0555)
 P :1...1            ( 0.00     0.4448)
 D :1...1            ( 0.00     2.6277)

 CYCLE    6
 d-Pmat  mean:  0.77E-06
 imax=      6: -0.85E-05
 orbitals (Q,E):
 ---------------
 S :1...2            ( 1.00    -0.2419)  ( 0.00     0.0555)
 P :1...1            ( 0.00     0.4448)
 D :1...1            ( 0.00     2.6277)

 CYCLE    7
 d-Pmat  mean:  0.86E-08
 imax=      6: -0.90E-07
 orbitals (Q,E):
 ---------------
 S :1...2            ( 1.00    -0.2419)  ( 0.00     0.0555)
 P :1...1            ( 0.00     0.4448)
 D :1...1            ( 0.00     2.6277)

 SCF CONVERGED

 CYCLE    8
1
 ***************************************************************************************************



                                                *******************
                                                *  R E S U L T S  *
                                                *******************
  
 *** Setting up for NEW gradients in focky
 *** Using FIT density in focky
 XCFun disabled
  
 Hartree-Fock exchange energy:  -0.141192939183095     
  
 Hartree-Fock exchange energy:  -0.141192939183095     

 Scaled ZORA Orbital Energies, per Irrep and Spin:
 =================================================
                        Occup              E (au)              E (eV)       Diff (eV) with prev. cycle
                        -----      --------------------        ------       --------------------------
 S
               1        1.000     -0.24188236579043E+00        -6.582               4.38E-10
               2        0.000      0.55501130821247E-01         1.510
               3        0.000      0.42924115183236E+00        11.680
               4        0.000      0.16744202629207E+01        45.563
               5        0.000      0.61782892588009E+01       168.120
               6        0.000      0.33513614624905E+02       911.952
               7        0.000      0.43870517151206E+04    119377.751
 P
               1        0.000      0.44478181238553E+00        12.103
 D
               1        0.000      0.26277486738120E+01        71.505


 Partially Occupied:
               1 S                -0.24188236579043E+00
  
 LUMO :        2 S                 0.55501130821247E-01
  


 Orbital Energies, all Irreps
 ========================================

 Irrep        no.  (spin)   Occup              E (au)                E (eV)
 ---------------------------------------------------------------------------
 S             1             1.00       -0.24188236579043E+00        -6.5820
 S             2             0.00        0.55501130821247E-01         1.5103
 S             3             0.00        0.42924115183236E+00        11.6802
 P             1             0.00        0.44478181238553E+00        12.1031
 S             4             0.00        0.16744202629207E+01        45.5633
 D             1             0.00        0.26277486738120E+01        71.5047
 S             5             0.00        0.61782892588009E+01       168.1198
 S             6             0.00        0.33513614624905E+02       911.9519
 S             7             0.00        0.43870517151206E+04    119377.7512


 Scaled ZORA Orbital Energies of the Core Orbitals:
 ==================================================

 WARNING : The XC part is not included correctly in these core orbital energies!
 (Note that the atoms are grouped by atomtype, see the labels, and may hence NOT be in input order)

 AtomType  Orbital  Atom                   E (au)                        E (eV)
 --------  -------  ----           --------------------        ----------------



 =======================================
 M U L L I K E N   P O P U L A T I O N S
 =======================================
  
 The survey below gives for each atom:
 a) the total charge (Z minus electrons)
 b) the net spin polarization (nr of electrons spin-A minus spin-B)
 c) for each spin the atomic electron valence density (integrated) per L-value.

 Atom              Charge    Spin density          S         P         D         F
 ----              ------    ------------       ------    ------    ------    ------
 1 H               0.0000                       1.0000    0.0000    0.0000    0.0000

 Populations of individual BAS functions
 ----------------------------------------
 1 H            0.0000 -0.0009  0.0021 -0.0073  0.2808  0.6172  0.1082  0.0000  0.0000  0.0000
                0.0000  0.0000  0.0000  0.0000  0.0000  0.0000

 Gross Charges per Atom (Z minus electrons)
 ==========================================
             0.0000
 Net Total:  0.00000000


 Atom-Atom Population Matrix (off-diagonal elements not doubled)
 ===============================================================

     1 :     1.0000



 =============
 Dipole Moment  ***  (Debye)  ***
 =============
  
 Vector   :         0.00000000      0.00000000      0.00000000
 Magnitude:         0.00000000

 This molecular dipole moment is calculated with analytic integration



 =========================================
 Quadrupole Moment (Buckingham convention)  ***  (a.u.)  ***
 =========================================
  
      quad-xx        quad-xy        quad-xz        quad-yy        quad-yz        quad-zz
      0.00000000     0.00000000     0.00000000     0.00000000     0.00000000     0.00000000

 This molecular quadrupole moment is calculated with analytic integration



 ===============================================================================
 Electrostatic potential at the Nuclei due to valence electrons and other nuclei
 ===============================================================================
  
         Atom                  Potential
         ----                  ---------
     1)   H                   0.92052504
 
 
 ========================
 No memory problems found
 ========================
 
 Maximum number of active allocate calls:         378
 
 *******************************************************************************

                             A D F   E X I T
 NORMAL TERMINATION



 =================
 Timing Statistics
 =================
  
 Total Used :                     CPU=        0.24      System=        0.06     Elapsed=        1.26

 Calls  Section                     ( Mean, Percentage )
 ---------------------------------------------------------------------------------------------------
     3  ><      ................      0.00    0.00             0.00    1.79             0.00    0.07
     1  INIT    ................      0.01    5.04             0.00    8.93             0.19   15.22
     1  GEOMET  ................      0.01    4.20             0.01   26.79             0.25   19.86
     1  INPUTA  ................      0.00    0.42             0.00    1.79             0.01    1.19
     1  MAINSY  ................      0.00    1.68             0.00    8.93             0.10    8.15
     1  SYMFIT  ................      0.00    0.00             0.00    1.79             0.00    0.08
     1  CORORT  ................      0.00    0.00             0.00    0.00             0.00    0.15
     1  SYMORB  ................      0.00    0.42             0.00    0.00             0.00    0.07
     1  FITINT  ................      0.00    2.10             0.00    0.00             0.01    0.44
     1  CLSMAT  ................      0.00    0.42             0.00    0.00             0.00    0.02
     1  ORTHON  ................      0.00    0.84             0.00    0.00             0.00    0.17
     1  ETALOW  ................      0.00    0.00             0.00    0.00             0.02    1.47
     1  GENPT   ................      0.01    5.46             0.00    1.79             0.03    2.46
     1  PTBAS   ................      0.00    0.84             0.00    0.00             0.01    0.73
     8  FOCKY   ................      0.02   51.26             0.00   35.71             0.07   42.62
     8  FOCKTR  ................      0.00    4.20             0.00    0.00             0.00    1.16
     8  FOCKNM  ................      0.00    0.42             0.00    0.00             0.00    0.03
     8  SDIIS   ................      0.00    1.26             0.00    1.79             0.00    0.26
     8  EMERGE  ................      0.00    8.40             0.00    3.57             0.00    1.99
     1  COREPS  ................      0.00    1.68             0.00    0.00             0.00    0.25
     1  POPAN   ................      0.00    0.84             0.00    0.00             0.00    0.20
     1  DEBYE   ................      0.00    0.00             0.00    3.57             0.02    1.26
     1  QMPOT   ................      0.00    0.84             0.00    1.79             0.00    0.25
     1  EXIT PROCEDURE .........      0.02    9.66             0.00    1.79             0.02    1.92


 Currently Open Files (EXIT00)
 ====================

 Unit    Access Format  Status   Type       Ident (file)
 -------------------------------------------------------
   3      SEQ    FORM   TRANSP  NORMAL      LOGFILE
                                          ( logfile )


 Buffered I/O statistics
 =======================
 Memory available:                     67108864
 Number of records fitting in memory:     16131
 Input :   1.2% of                         4064  *4k bytes
 Output:  10.4% of                         1916  *4k bytes
 Records from serial files evicted:           0
                    others evicted:           0
 Hash table lookups:      16338 with          0 conflicts (  0.00%)

 ***************************************************************************************************
 (LOGFILE)
 <Dec21-2012> <09:35:19>  DIRAC 2012.01  RunTime: Dec21-2012 09:35:19  Nodes: 1  Procs: 1
 <Dec21-2012> <09:35:19>  NORMAL TERMINATION
 <Dec21-2012> <09:35:19>  END
 <Dec21-2012> <09:35:20>  ADF 2012.01  RunTime: Dec21-2012 09:35:20  Nodes: 1  Procs: 1
 <Dec21-2012> <09:35:20>  Hydrogen (TZ2P + 2Z 3Z 4Z 100Z)
 <Dec21-2012> <09:35:20>  RunType   : CREATE
 <Dec21-2012> <09:35:20>  Net Charge: 0 (Nuclei minus Electrons)
 <Dec21-2012> <09:35:20>  Symmetry  : ATOM
 <Dec21-2012> <09:35:20>  >>>> CORORT
 <Dec21-2012> <09:35:20>  >>>> FITINT
 <Dec21-2012> <09:35:20>  >>>> CLSMAT
 <Dec21-2012> <09:35:20>  >>>> ORTHON
 <Dec21-2012> <09:35:20>  >>>> GENPT
 <Dec21-2012> <09:35:20>  Acc.Num.Int.=  10.000
 <Dec21-2012> <09:35:20>  Block Length=  78
 <Dec21-2012> <09:35:20>  >>>> PTBAS
 <Dec21-2012> <09:35:20>  >>>> CYCLE
 <Dec21-2012> <09:35:20>    1
 <Dec21-2012> <09:35:20>    2  ErrMat   0.04776102  MaxEl  0.02875878
 <Dec21-2012> <09:35:20>    3  ErrMat   0.00671049  MaxEl -0.00592243
 <Dec21-2012> <09:35:20>    4  ErrMat   0.00029822  MaxEl -0.00020751
 <Dec21-2012> <09:35:20>    5  ErrMat   0.00001074  MaxEl -0.00000761
 <Dec21-2012> <09:35:20>    6  ErrMat   0.00000020  MaxEl  0.00000017
 <Dec21-2012> <09:35:20>    7  ErrMat   0.00000000  MaxEl  0.00000000
 <Dec21-2012> <09:35:21>  SCF converged
 <Dec21-2012> <09:35:21>    8  ErrMat   0.00000000  MaxEl  0.00000000
 <Dec21-2012> <09:35:21>   Solutions with partially occupied orbitals may not be
 <Dec21-2012> <09:35:21>   lowest in energy. You might consider lowering the
 <Dec21-2012> <09:35:21>   symmetry in the input and explicitly specifying integer
 <Dec21-2012> <09:35:21>   occupations. In that case always check that you obtain
 <Dec21-2012> <09:35:21>   an aufbau solution.
 <Dec21-2012> <09:35:21>  >>>> POPAN
 <Dec21-2012> <09:35:21>  >>>> DEBYE
 <Dec21-2012> <09:35:21>  NORMAL TERMINATION
 <Dec21-2012> <09:35:21>  END
NORMAL TERMINATION

 *******************************************************************************
 *                                                                             *
 *  -------------------------------------                                      *
 *   Amsterdam Density Functional  (ADF)         2012.01   January 26, 2012    *
 *  -------------------------------------                                      *
 *                                               Build 201205311514            *
 *                                                                             *
 *                                                                             *
 *                            =====================                            *
 *                            |                   |                            *
 *                            |     D I R A C     |                            *
 *                            |                   |                            *
 *                            =====================                            *
 *                                                                             *
 *                                                                             *
 *   Online information and documentation:  http://www.scm.com                 *
 *   E-mail:  support@scm.com   info@scm.com                                   *
 *                                                                             *
 *   Scientific publications using ADF results must be properly referenced     *
 *   See the User Manuals (or the web site) for recommended citations          *
 *   The terms and conditions of the End User License Agreement apply to       *
 *   the use of ADF, http://www.scm.com/Sales/LicAgreement.html                *
 *                                                                             *
 **********************  pentium64_linux / platform_mpi  ***********************
 
 DIRAC 2012.01  RunTime: Dec21-2012 09:35:21  Nodes: 1  Procs: 1

 Temporary files are created in /scratch/kid_0.ozZySZ

1
 CARBON ATOM all electron RELATIVISTIC, Point Nuc, A and c fr
 N J RN H ZN XION ANUC CLIGHT
 5000    4100.00000000197.36710137  6.00000000  0.00000000   12.000000  0.1370360E+03
  PH   PHI     EPS        DEL        DELRVR
  0.30  0.30     2500.00  0.00001000  0.00001000
 IDIRC  NC1  NDEBU NPRIN  IPUN IRCOR IWCOR
   1   300     0     0     0     0     0
   XALPHA      XLATTER      RNUC
  0.70000000  0.00000000  0.00000000 Point Charge
   XN   XL   XJ      XE          XZ      XDELL
  1.0  0.0  0.5      -5.000       2.000     0.00000
  2.0  0.0  0.5      -1.000       2.000     0.00000
  2.0  1.0  0.5      -1.000       2.000     0.00000
  2.0  1.0  1.5      -1.000       0.000     0.00000
 ICORP=  0  NPCL=  0  DEMP=0.00  PEPS=0.000000
 R(1)=  0.1000000E-08 D=  0.1005080E+01 RNUC=  0.0000000E+00
 converged at cycle   26  DENSITY AVERAGING    0.3000
  MAXIMUM ERROR IN R.V(R) IS   0.55010513E-05
 Q,EY,EV,EZ,ESUM,ETOT,RHO  0.600000E+01 -0.610129E+01 -0.585189E+02 -0.876464E+02 -0.211985E+02 -0.372876E+02  0.164808E-14


 DIRAC CALCULATION
1                    CARBON ATOM all electron RELATIVISTIC, Point Nuc, A and c from libtc


 EXCHANGE COEFFICIENT=  0.7000000           TAIL CORRECTION=  0.           NUCLEAR RADIUS=  0.000E+00
0                       ORBITAL    N    L    J     ELECTRONS     EIGENVALUE                DELTA OF EIGENV.

                          1S1/2  1.0  0.0  0.5     2.000       -0.9959611E+01                 0.1355092E-04
                          2S1/2  2.0  0.0  0.5     2.000       -0.4708542E+00                 0.1106918E-05
                          2P1/2  2.0  1.0  0.5     2.000       -0.1687896E+00                 0.8770186E-06
                          2P3/2  2.0  1.0  1.5     0.000       -0.1684646E+00                 0.8770830E-06


                                        NUCLEAR CHARGE=    6.000000
                            INTEGRAL OF CHARGE DENSITY=    6.000000
                           SUM OF THE ORBITAL ENERGIES=    -21.1985
                                          TOTAL ENERGY=    -37.2876
                                        KINETIC ENERGY=     37.3204
                             NUCLEAR ATTRACTION ENERGY=    -87.6464
                             ELECTRON REPULSION ENERGY=     17.6144
                                       EXCHANGE ENERGY=     -4.5760

 *******************************************************************************

                             D I R A C   E X I T
 NORMAL TERMINATION



 =================
 Timing Statistics
 =================
  
 Total Used :                     CPU=        0.18      System=        0.01     Elapsed=        0.20

 Calls  Section                     ( Mean, Percentage )
 ---------------------------------------------------------------------------------------------------
     2  ><      ................      0.00    0.00             0.00    0.00             0.00    0.01
     1  EXIT PROCEDURE .........      0.18  100.00             0.01  100.00             0.20   99.99


 Currently Open Files (EXIT00)
 ====================

 Unit    Access Format  Status   Type       Ident (file)
 -------------------------------------------------------
   3      SEQ    FORM   TRANSP  NORMAL      LOGFILE
                                          ( logfile )


 Buffered I/O statistics
 =======================
 Memory available:                     67108864
 Number of records fitting in memory:     16131
 Input : 100.0% of                            0  *4k bytes
 Output: 100.0% of                            0  *4k bytes
 Records from serial files evicted:           0
                    others evicted:           0
 Hash table lookups:          0 with          0 conflicts (100.00%)
NORMAL TERMINATION
(INPUT FILE)
Create C   file=/ifs/projects/jochena/software/adf/adffix2012/atomicdata/ZORA/jcpl/C
XC
hybrid pbe0
End
relativistic ZORA
Corepotentials t12.rel
End Input

 *******************************************************************************
 *                                                                             *
 *  -------------------------------------                                      *
 *   Amsterdam Density Functional  (ADF)         2012.01   January 26, 2012    *
 *  -------------------------------------                                      *
 *                                               Build 201205311514            *
 *                                                                             *
 *                                                                             *
 *                              =================                              *
 *                              |               |                              *
 *                              |     A D F     |                              *
 *                              |               |                              *
 *                              =================                              *
 *                                                                             *
 *                                                                             *
 *   Online information and documentation:  http://www.scm.com                 *
 *   E-mail:  support@scm.com   info@scm.com                                   *
 *                                                                             *
 *   Scientific publications using ADF results must be properly referenced     *
 *   See the User Manuals (or the web site) for recommended citations          *
 *   The terms and conditions of the End User License Agreement apply to       *
 *   the use of ADF, http://www.scm.com/Sales/LicAgreement.html                *
 *                                                                             *
 **********************  pentium64_linux / platform_mpi  ***********************
 
 ADF 2012.01  RunTime: Dec21-2012 09:35:21  Nodes: 1  Procs: 1

 Temporary files are created in /scratch/kid_0.8pr6Dm

 Carbon (TZ2P + 2Z 3Z 4Z 100Z)



 ===========================
 A T T A C H E D   F I L E S
 ===========================
  
 CREATE - Data File:    /ifs/projects/jochena/software/adf/adffix2012/atomicdata/ZORA/jcpl/C
                        Carbon (TZ2P + 2Z 3Z 4Z 100Z)
 Core Potentials:
         file : t12.rel



 ===============================
 M O D E L   P A R A M E T E R S
 ===============================
  
 DENSITY FUNCTIONAL POTENTIAL (scf)
    Hybrid:                            PBE0                                    == Not Default ==

 SPIN  (restricted / unrestr.)
    Molecule:                          Restricted                               

 OTHER ASPECTS
    Relativistic Corrections:          scalar (ZORA,SAPA)                       *** SPECIAL ***

    Nuclear Charge Density Model:      Point Charge Nuclei                                                                                                                                                                                     
    Core Treatment:                    Frozen Orbital(s)                        

    Electric Field:                    ---                                      

    Hyperfine or Zeeman Interaction:   ---                                      



 =====================================
 S Y M M E T R Y ,   E L E C T R O N S
 =====================================
  
 Symmetry: ATOM

 Irreducible Representations, including subspecies
 -------------------------------------------------
 S
 P:x  P:y  P:z
 D:z2  D:x2-y2  D:xy  D:xz  D:yz
 F:z3  F:z  F:xyz  F:z2x  F:z2y  F:x  F:y


 Configuration of Valence Electrons
 ==================================

          Occupation Numbers
          -------------------------------------------------
 S        2*2
 P        2
 D        0
 F        0
          -------------------------------------------------

 Total:   6

 Net Charge: 0 (Nuclei minus Electrons)

 Preset values for MO occupations will be applied through SCF cycle no. 1000000
 Thereafter, the program will assign electrons to MOs that are spatially
 similar to the occupied MOs in a "reference" cycle ("KeepOrbitals").
 The reference cycle is always the PREVIOUS cycle: it will evolve with
 the SCF procedure.



 ================================
 (Slater-type)  F U N C T I O N S  ***  (Basis and Fit)  ***
 ================================
  

 Atom Type    1  (C)
 ==============

 Valence Basis Sets:  14
 -----------------------
   1 S  600.000000
   1 S   24.000000
   1 S   18.000000
   1 S   12.000000
   1 S    7.680000
   1 S    5.000000
   2 S    1.280000
   2 S    2.100000
   2 S    4.600000
   2 P    0.820000
   2 P    1.480000
   2 P    2.940000
   3 D    2.200000
   4 F    3.300000

 Charge Fitting Sets (for the computation of the Coulomb Potential):  31
 -----------------------------------------------------------------------
   1 S 1200.000000
   1 S  624.000000
   1 S  618.000000
   1 S  612.000000
   1 S   48.000000
   1 S   42.000000
   1 S   36.000000
   1 S   30.000000
   1 S   24.000000
   1 S   15.360000
   2 S   17.530000
   2 S   12.070000
   2 S    8.310000
   2 S    5.730000
   3 S    5.780000
   3 S    4.220000
   3 S    3.080000
   3 S    2.250000
   3 S    1.640000
   2 P    9.880000
   2 P    5.800000
   3 P    5.050000
   3 P    3.230000
   3 P    2.060000
   3 D    7.200000
   3 D    4.400000
   3 D    2.690000
   3 D    1.640000
   4 F    5.400000
   4 F    3.550000
   5 G    4.500000


 BAS: List of all Elementary Cartesian Basis Functions
 =====================================================

 The numbering in the list below (to the right of the function characteristics) is referred
 to in print-outs of MO eigenvectors and Mulliken populations in the BAS representation
 (as contrasted to the SFO representation).

 Notes:
 1. The functions are characterized by a polynomial prefactor (powers of x,y,z and r) and
    an exponential decay factor alpha.
 2. Since the basis sets are specific for an atom TYPE, the individual functions occur on
    all atoms of that type.
 3. The word 'Core' in the left margin signals that it is a Core Function (CF) : not a
    degree of freedom in the valence set, but only used to ensure orthogonalization of
    the other valence basis functions on the frozen Core Orbitals.


 (power of) X  Y  Z  R     Alpha  on Atom
            ==========     =====     ==========

 C                                    1
                                  ---------------------------------------------------------------------------
            0  0  0  0   600.000      1
            0  0  0  0    24.000      2
            0  0  0  0    18.000      3
            0  0  0  0    12.000      4
            0  0  0  0     7.680      5
            0  0  0  0     5.000      6
            0  0  0  1     1.280      7
            0  0  0  1     2.100      8
            0  0  0  1     4.600      9
            1  0  0  0     0.820     10
            0  1  0  0     0.820     11
            0  0  1  0     0.820     12
            1  0  0  0     1.480     13
            0  1  0  0     1.480     14
            0  0  1  0     1.480     15
            1  0  0  0     2.940     16
            0  1  0  0     2.940     17
            0  0  1  0     2.940     18
            2  0  0  0     2.200     19
            1  1  0  0     2.200     20
            1  0  1  0     2.200     21
            0  2  0  0     2.200     22
            0  1  1  0     2.200     23
            0  0  2  0     2.200     24
            3  0  0  0     3.300     25
            2  1  0  0     3.300     26
            2  0  1  0     3.300     27
            1  2  0  0     3.300     28
            1  1  1  0     3.300     29
            1  0  2  0     3.300     30
            0  3  0  0     3.300     31
            0  2  1  0     3.300     32
            0  1  2  0     3.300     33
            0  0  3  0     3.300     34

 Total number of charge fitting functions (nprimf)        93
 Total number of Cartesian basis functions (naos)         34
 Total number of Cartesian core functions  (ncos)          0



 BAS: List of all Elementary Cartesian Basis Functions
 =====================================================

 The numbering in the list below (to the right of the function characteristics) is referred
 to in print-outs of MO eigenvectors and Mulliken populations in the BAS representation
 (as contrasted to the SFO representation).

 Notes:
 1. The functions are characterized by a polynomial prefactor (powers of x,y,z and r) and
    an exponential decay factor alpha.
 2. Since the basis sets are specific for an atom TYPE, the individual functions occur on
    all atoms of that type.
 3. The word 'Core' in the left margin signals that it is a Core Function (CF) : not a
    degree of freedom in the valence set, but only used to ensure orthogonalization of
    the other valence basis functions on the frozen Core Orbitals.


 (power of) X  Y  Z  R     Alpha  on Atom
            ==========     =====     ==========

 C                                    1
                                  ---------------------------------------------------------------------------
            0  0  0  0   600.000      1
            0  0  0  0    24.000      2
            0  0  0  0    18.000      3
            0  0  0  0    12.000      4
            0  0  0  0     7.680      5
            0  0  0  0     5.000      6
            0  0  0  1     1.280      7
            0  0  0  1     2.100      8
            0  0  0  1     4.600      9
            1  0  0  0     0.820     10
            0  1  0  0     0.820     11
            0  0  1  0     0.820     12
            1  0  0  0     1.480     13
            0  1  0  0     1.480     14
            0  0  1  0     1.480     15
            1  0  0  0     2.940     16
            0  1  0  0     2.940     17
            0  0  1  0     2.940     18
            2  0  0  0     2.200     19
            1  1  0  0     2.200     20
            1  0  1  0     2.200     21
            0  2  0  0     2.200     22
            0  1  1  0     2.200     23
            0  0  2  0     2.200     24
            3  0  0  0     3.300     25
            2  1  0  0     3.300     26
            2  0  1  0     3.300     27
            1  2  0  0     3.300     28
            1  1  1  0     3.300     29
            1  0  2  0     3.300     30
            0  3  0  0     3.300     31
            0  2  1  0     3.300     32
            0  1  2  0     3.300     33
            0  0  3  0     3.300     34
1
 ***************************************************************************************************



                                              ***********************
                                              *  T E C H N I C A L  *
                                              ***********************
  



 =============================================================
 P A R A L L E L I Z A T I O N  and  V E C T O R I Z A T I O N
 =============================================================
  
 Nr of parallel processes:                                1
 Maximum vector length in NumInt loops:                 128



 ===============
 I O  vs.  C P U  ***  (store numerical data on disk or recalculate)  ***
 ===============
  
 Basis functions:   recalculate when needed
 Fit functions:     recalculate when needed

 IO buffersize (Mb):                                     64.000000



 =====================
 S C F   U P D A T E S
 =====================
  
 Max. nr. of cycles:                               100
 Convergence criterion:                              0.0000000100
   secondary criterion:                              0.0000000100

 Mix parameter (when DIIS does not apply):           0.2000000000
 Special mix parameter for the first cycle:          1.0000000000


 DIIS (Direct Inversion in Iteration Space)
    Replace damping when SCF Error is below:         0.5000000000
    Apply anyway after SCF cycle:
                                                     5
    (Max.) nr. of expansion vectors:                10

    Upperbound on expansion coefficients:            5.0000000000
    (when exceeded, IterationSpace is re-built)
    2nd Upperbound on coefficients:                 25.0000000000
    (when exceeded, simple damping will be used)
 Automatic ElectronSmearing (in case of problematic SCF convergence) disabled



 =================
 P R E C I S I O N  ***  (General: NumInt, NeglectFunctionTails, ...)  ***
 =================
  

 NumInt:           Target precision:                10.0000000000
 -------           Initial precision:               10.0000000000
                   Min. precision (optimization):   10.0000000000

 Neglect Functions:          Basis functions:        0.1000000000E-11
 ------------------          Fit functions:          0.1000000000E-11



 ===========================
 L I N E A R   S C A L I N G
 ===========================
  

 Cut-off radii density fit:                        0.1000000000E-13
 Overlap cut-off criterion AO matrix elements:     0.1000000000E-11
 Cut-offs for Coulomb potential and fitted density:0.1000000000E-13
 Cut-off criterion for Coulomb multipole terms:    0.1000000000E-13
 Progressive Convergence parameter:                 0.000000000    
1
 ***************************************************************************************************



                                            ***************************
                                            *  C O M P U T A T I O N  *
                                            ***************************
  

 Number of elements of the density matrix on this node (used, total):       595       595



 ====================================================
 Numerical Integration : Voronoi Polyhedra (Te Velde)  ***  (parameters, tests)  ***
 ====================================================
  
 General Accuracy Parameter :                         10.00

 Symmetry used in the points section:  ATOM  


 Summary of the Symmetry Unique Points:
 --------------------------------------
    Nr. of used Symmetry Operators                     1

    Points in the Atomic Spheres                     100
    Points in the Atomic Polyhedra                     0
    Points in the Outer Region                         0
    ----------------------------------------------------
    Total                                            100

    Sum of Weights                                 58501.056183

 Total nr. of points:        100
 Nr. of blocks:                1
 Block length:               100
 Nr. of dummy points:          0


 Test of Precision of the Numerical Integration Grid
 ===================================================

 Integral of the Total Core Density:                   0.00000000000000



 =====
 S C F
 =====
  

 CYCLE    1
 orbitals (Q,E):
 ---------------
 S :1...9            ( 2.00   -18.0047)  ( 2.00    -4.4949)  ( 0.00    -1.9681)  ( 0.00    -0.4174)
                     ( 0.00     9.8170)  ( 0.00    49.9558)  ( 0.00   204.5960)  ( 0.00  1126.2911)
                     ( 0.00 32119.4537)
 P :1...3            ( 2.00    -4.5000)  ( 0.00    -1.9811)  ( 0.00    -1.0851)
 D :1...1            ( 0.00    -1.9800)
 F :1...1            ( 0.00     0.4946)

 CYCLE    2
 d-Pmat  mean:  0.13E+01
 imax=      6: -0.18E+02
 orbitals (Q,E):
 ---------------
 S :1...3            ( 2.00    -8.1027)  ( 2.00    -0.0484)  ( 0.00     0.7108)
 P :1...2            ( 2.00     0.1429)  ( 0.00     0.6219)
 D :1...1            ( 0.00     1.8475)
 F :1...1            ( 0.00     4.7497)

 CYCLE    3
 d-Pmat  mean:  0.19E+00
 imax=      6: -0.18E+01
 orbitals (Q,E):
 ---------------
 S :1...3            ( 2.00    -8.8112)  ( 2.00    -0.2242)  ( 0.00     0.5564)
 P :1...2            ( 2.00     0.0588)  ( 0.00     0.4383)
 D :1...1            ( 0.00     1.6373)
 F :1...1            ( 0.00     4.5029)

 CYCLE    4
 d-Pmat  mean:  0.18E+00
 imax=      7: -0.13E+01
 orbitals (Q,E):
 ---------------
 S :1...3            ( 2.00   -10.4866)  ( 2.00    -0.6447)  ( 0.00     0.3210)
 P :1...2            ( 2.00    -0.2334)  ( 0.00     0.1809)
 D :1...1            ( 0.00     1.2447)
 F :1...1            ( 0.00     4.0314)

 CYCLE    5
 d-Pmat  mean:  0.17E-01
 imax=      8: -0.19E+00
 orbitals (Q,E):
 ---------------
 S :1...3            ( 2.00   -10.3842)  ( 2.00    -0.5750)  ( 0.00     0.3557)
 P :1...2            ( 2.00    -0.1768)  ( 0.00     0.2070)
 D :1...1            ( 0.00     1.3084)
 F :1...1            ( 0.00     4.1065)

 CYCLE    6
 d-Pmat  mean:  0.24E-02
 imax=      8:  0.13E-01
 orbitals (Q,E):
 ---------------
 S :1...3            ( 2.00   -10.4130)  ( 2.00    -0.5841)  ( 0.00     0.3503)
 P :1...2            ( 2.00    -0.1862)  ( 0.00     0.2025)
 D :1...1            ( 0.00     1.2988)
 F :1...1            ( 0.00     4.0954)

 CYCLE    7
 d-Pmat  mean:  0.29E-03
 imax=      8: -0.30E-02
 orbitals (Q,E):
 ---------------
 S :1...3            ( 2.00   -10.4106)  ( 2.00    -0.5831)  ( 0.00     0.3510)
 P :1...2            ( 2.00    -0.1853)  ( 0.00     0.2030)
 D :1...1            ( 0.00     1.2997)
 F :1...1            ( 0.00     4.0965)

 CYCLE    8
 d-Pmat  mean:  0.26E-04
 imax=      8: -0.26E-03
 orbitals (Q,E):
 ---------------
 S :1...3            ( 2.00   -10.4104)  ( 2.00    -0.5830)  ( 0.00     0.3510)
 P :1...2            ( 2.00    -0.1852)  ( 0.00     0.2030)
 D :1...1            ( 0.00     1.2998)
 F :1...1            ( 0.00     4.0966)

 CYCLE    9
 d-Pmat  mean:  0.12E-06
 imax=      8:  0.88E-06
 orbitals (Q,E):
 ---------------
 S :1...3            ( 2.00   -10.4104)  ( 2.00    -0.5830)  ( 0.00     0.3510)
 P :1...2            ( 2.00    -0.1852)  ( 0.00     0.2030)
 D :1...1            ( 0.00     1.2998)
 F :1...1            ( 0.00     4.0966)

 CYCLE   10
 d-Pmat  mean:  0.48E-08
 imax=      8:  0.45E-07
 orbitals (Q,E):
 ---------------
 S :1...3            ( 2.00   -10.4104)  ( 2.00    -0.5830)  ( 0.00     0.3510)
 P :1...2            ( 2.00    -0.1852)  ( 0.00     0.2030)
 D :1...1            ( 0.00     1.2998)
 F :1...1            ( 0.00     4.0966)

 CYCLE   11
 d-Pmat  mean:  0.25E-10
 imax=      8: -0.27E-09
 orbitals (Q,E):
 ---------------
 S :1...3            ( 2.00   -10.4104)  ( 2.00    -0.5830)  ( 0.00     0.3510)
 P :1...2            ( 2.00    -0.1852)  ( 0.00     0.2030)
 D :1...1            ( 0.00     1.2998)
 F :1...1            ( 0.00     4.0966)

 SCF CONVERGED

 CYCLE   12
1
 ***************************************************************************************************



                                                *******************
                                                *  R E S U L T S  *
                                                *******************
  
 *** Setting up for NEW gradients in focky
 *** Using FIT density in focky
 XCFun disabled
  
 Hartree-Fock exchange energy:   -4.64642567730245     
  
 Hartree-Fock exchange energy:   -4.64642567730245     

 Scaled ZORA Orbital Energies, per Irrep and Spin:
 =================================================
                        Occup              E (au)              E (eV)       Diff (eV) with prev. cycle
                        -----      --------------------        ------       --------------------------
 S
               1        2.000     -0.10410411389598E+02      -283.282               1.24E-09
               2        2.000     -0.58302774839072E+00       -15.865              -7.38E-10
               3        0.000      0.35103554081047E+00         9.552
               4        0.000      0.34377075202052E+01        93.545
               5        0.000      0.15716958894284E+02       427.680
               6        0.000      0.57660862296163E+02      1569.032
               7        0.000      0.21363203991080E+03      5813.224
               8        0.000      0.11353268338494E+04     30893.815
               9        0.000      0.32118873626515E+05    873999.021
 P
               1        2.000     -0.18523932426900E+00        -5.041              -1.67E-09
               2        0.000      0.20299364726634E+00         5.524
               3        0.000      0.21245034078434E+01        57.811
 D
               1        0.000      0.12998254102264E+01        35.370
 F
               1        0.000      0.40966152327741E+01       111.475


 Partially Occupied:
               1 P                -0.18523932426900E+00
  
 HOMO :        2 S                -0.58302774839072E+00
 LUMO :        2 P                 0.20299364726634E+00
  


 Orbital Energies, all Irreps
 ========================================

 Irrep        no.  (spin)   Occup              E (au)                E (eV)
 ---------------------------------------------------------------------------
 S             1             2.00       -0.10410411389598E+02      -283.2817
 S             2             2.00       -0.58302774839072E+00       -15.8650
 P             1             2.00       -0.18523932426900E+00        -5.0406
 P             2             0.00        0.20299364726634E+00         5.5237
 S             3             0.00        0.35103554081047E+00         9.5522
 D             1             0.00        0.12998254102264E+01        35.3700
 P             3             0.00        0.21245034078434E+01        57.8107
 S             4             0.00        0.34377075202052E+01        93.5448
 F             1             0.00        0.40966152327741E+01       111.4746
 S             5             0.00        0.15716958894284E+02       427.6802
 S             6             0.00        0.57660862296163E+02      1569.0319
 S             7             0.00        0.21363203991080E+03      5813.2236
 S             8             0.00        0.11353268338494E+04     30893.8150
 S             9             0.00        0.32118873626515E+05    873999.0208


 Scaled ZORA Orbital Energies of the Core Orbitals:
 ==================================================

 WARNING : The XC part is not included correctly in these core orbital energies!
 (Note that the atoms are grouped by atomtype, see the labels, and may hence NOT be in input order)

 AtomType  Orbital  Atom                   E (au)                        E (eV)
 --------  -------  ----           --------------------        ----------------



 =======================================
 M U L L I K E N   P O P U L A T I O N S
 =======================================
  
 The survey below gives for each atom:
 a) the total charge (Z minus electrons)
 b) the net spin polarization (nr of electrons spin-A minus spin-B)
 c) for each spin the atomic electron valence density (integrated) per L-value.

 Atom              Charge    Spin density          S         P         D         F
 ----              ------    ------------       ------    ------    ------    ------
 1 C               0.0000                       4.0000    2.0000    0.0000    0.0000

 Populations of individual BAS functions
 ----------------------------------------
 1 C            0.0000 -0.0029  0.0150 -0.0298  0.4881  1.5657  0.8922  1.1808 -0.1091  0.1970
                0.1970  0.1970  0.3741  0.3741  0.3741  0.0955  0.0955  0.0955  0.0000  0.0000
                0.0000  0.0000  0.0000  0.0000  0.0000  0.0000  0.0000  0.0000  0.0000  0.0000
                0.0000  0.0000  0.0000  0.0000

 Gross Charges per Atom (Z minus electrons)
 ==========================================
             0.0000
 Net Total:  0.00000000


 Atom-Atom Population Matrix (off-diagonal elements not doubled)
 ===============================================================

     1 :     6.0000



 =============
 Dipole Moment  ***  (Debye)  ***
 =============
  
 Vector   :         0.00000000      0.00000000      0.00000000
 Magnitude:         0.00000000

 This molecular dipole moment is calculated with analytic integration



 =========================================
 Quadrupole Moment (Buckingham convention)  ***  (a.u.)  ***
 =========================================
  
      quad-xx        quad-xy        quad-xz        quad-yy        quad-yz        quad-zz
      0.00000000     0.00000000     0.00000000     0.00000000     0.00000000     0.00000000

 This molecular quadrupole moment is calculated with analytic integration



 ===============================================================================
 Electrostatic potential at the Nuclei due to valence electrons and other nuclei
 ===============================================================================
  
         Atom                  Potential
         ----                  ---------
     1)   C                  14.64896807
 
 
 ========================
 No memory problems found
 ========================
 
 Maximum number of active allocate calls:         476
 
 *******************************************************************************

                             A D F   E X I T
 NORMAL TERMINATION



 =================
 Timing Statistics
 =================
  
 Total Used :                     CPU=        0.36      System=        0.03     Elapsed=        0.61

 Calls  Section                     ( Mean, Percentage )
 ---------------------------------------------------------------------------------------------------
     3  ><      ................      0.00    0.27             0.00    0.00             0.00    0.15
     1  INIT    ................      0.01    3.02             0.00    2.85             0.04    7.35
     1  GEOMET  ................      0.01    2.20             0.01   42.86             0.02    3.63
     1  INPUTA  ................      0.00    0.27             0.00    0.00             0.00    0.30
     1  MAINSY  ................      0.01    1.65             0.00    2.86             0.01    1.14
     1  SYMFIT  ................      0.00    0.00             0.00    2.86             0.00    0.17
     1  CORORT  ................      0.00    0.27             0.00    0.00             0.00    0.04
     1  SYMORB  ................      0.00    0.27             0.00    0.00             0.00    0.19
     1  FITINT  ................      0.01    2.47             0.00    2.86             0.01    1.66
     1  CLSMAT  ................      0.00    0.00             0.00    0.00             0.00    0.05
     1  ORTHON  ................      0.00    0.55             0.00    0.00             0.00    0.28
     1  ETALOW  ................      0.00    0.27             0.00    0.00             0.00    0.15
     1  GENPT   ................      0.02    4.94             0.00    0.00             0.02    2.99
     1  PTBAS   ................      0.00    0.82             0.00    0.00             0.00    0.47
    12  FOCKY   ................      0.01   49.45             0.00   28.57             0.02   31.00
    12  FOCKTR  ................      0.00    8.24             0.00    0.00             0.00    4.98
    12  FOCKNM  ................      0.00    0.55             0.00    0.00             0.00    0.09
    12  SDIIS   ................      0.00    0.55             0.00    5.72             0.00    0.84
    12  EMERGE  ................      0.00   14.56             0.00    2.86             0.02   37.50
     1  COREPS  ................      0.01    1.37             0.00    0.00             0.00    0.71
     1  POPAN   ................      0.00    0.82             0.00    0.00             0.00    0.56
     1  DEBYE   ................      0.00    0.00             0.00    2.86             0.00    0.10
     1  QMPOT   ................      0.00    1.10             0.00    2.85             0.01    1.63
     1  EXIT PROCEDURE .........      0.02    6.32             0.00    2.86             0.02    4.01


 Currently Open Files (EXIT00)
 ====================

 Unit    Access Format  Status   Type       Ident (file)
 -------------------------------------------------------
   3      SEQ    FORM   TRANSP  NORMAL      LOGFILE
                                          ( logfile )


 Buffered I/O statistics
 =======================
 Memory available:                     67108864
 Number of records fitting in memory:     16131
 Input :   0.8% of                         7879  *4k bytes
 Output:   8.2% of                         2840  *4k bytes
 Records from serial files evicted:           0
                    others evicted:           0
 Hash table lookups:      29493 with          0 conflicts (  0.00%)

 ***************************************************************************************************
 (LOGFILE)
 <Dec21-2012> <09:35:19>  DIRAC 2012.01  RunTime: Dec21-2012 09:35:19  Nodes: 1  Procs: 1
 <Dec21-2012> <09:35:19>  NORMAL TERMINATION
 <Dec21-2012> <09:35:19>  END
 <Dec21-2012> <09:35:20>  ADF 2012.01  RunTime: Dec21-2012 09:35:20  Nodes: 1  Procs: 1
 <Dec21-2012> <09:35:20>  Hydrogen (TZ2P + 2Z 3Z 4Z 100Z)
 <Dec21-2012> <09:35:20>  RunType   : CREATE
 <Dec21-2012> <09:35:20>  Net Charge: 0 (Nuclei minus Electrons)
 <Dec21-2012> <09:35:20>  Symmetry  : ATOM
 <Dec21-2012> <09:35:20>  >>>> CORORT
 <Dec21-2012> <09:35:20>  >>>> FITINT
 <Dec21-2012> <09:35:20>  >>>> CLSMAT
 <Dec21-2012> <09:35:20>  >>>> ORTHON
 <Dec21-2012> <09:35:20>  >>>> GENPT
 <Dec21-2012> <09:35:20>  Acc.Num.Int.=  10.000
 <Dec21-2012> <09:35:20>  Block Length=  78
 <Dec21-2012> <09:35:20>  >>>> PTBAS
 <Dec21-2012> <09:35:20>  >>>> CYCLE
 <Dec21-2012> <09:35:20>    1
 <Dec21-2012> <09:35:20>    2  ErrMat   0.04776102  MaxEl  0.02875878
 <Dec21-2012> <09:35:20>    3  ErrMat   0.00671049  MaxEl -0.00592243
 <Dec21-2012> <09:35:20>    4  ErrMat   0.00029822  MaxEl -0.00020751
 <Dec21-2012> <09:35:20>    5  ErrMat   0.00001074  MaxEl -0.00000761
 <Dec21-2012> <09:35:20>    6  ErrMat   0.00000020  MaxEl  0.00000017
 <Dec21-2012> <09:35:20>    7  ErrMat   0.00000000  MaxEl  0.00000000
 <Dec21-2012> <09:35:21>  SCF converged
 <Dec21-2012> <09:35:21>    8  ErrMat   0.00000000  MaxEl  0.00000000
 <Dec21-2012> <09:35:21>   Solutions with partially occupied orbitals may not be
 <Dec21-2012> <09:35:21>   lowest in energy. You might consider lowering the
 <Dec21-2012> <09:35:21>   symmetry in the input and explicitly specifying integer
 <Dec21-2012> <09:35:21>   occupations. In that case always check that you obtain
 <Dec21-2012> <09:35:21>   an aufbau solution.
 <Dec21-2012> <09:35:21>  >>>> POPAN
 <Dec21-2012> <09:35:21>  >>>> DEBYE
 <Dec21-2012> <09:35:21>  NORMAL TERMINATION
 <Dec21-2012> <09:35:21>  END
 <Dec21-2012> <09:35:21>  DIRAC 2012.01  RunTime: Dec21-2012 09:35:21  Nodes: 1  Procs: 1
 <Dec21-2012> <09:35:21>  NORMAL TERMINATION
 <Dec21-2012> <09:35:21>  END
 <Dec21-2012> <09:35:21>  ADF 2012.01  RunTime: Dec21-2012 09:35:21  Nodes: 1  Procs: 1
 <Dec21-2012> <09:35:21>  Carbon (TZ2P + 2Z 3Z 4Z 100Z)
 <Dec21-2012> <09:35:21>  RunType   : CREATE
 <Dec21-2012> <09:35:21>  Net Charge: 0 (Nuclei minus Electrons)
 <Dec21-2012> <09:35:21>  Symmetry  : ATOM
 <Dec21-2012> <09:35:21>  >>>> CORORT
 <Dec21-2012> <09:35:21>  >>>> FITINT
 <Dec21-2012> <09:35:21>  >>>> CLSMAT
 <Dec21-2012> <09:35:21>  >>>> ORTHON
 <Dec21-2012> <09:35:21>  >>>> GENPT
 <Dec21-2012> <09:35:21>  Acc.Num.Int.=  10.000
 <Dec21-2012> <09:35:21>  Block Length= 100
 <Dec21-2012> <09:35:21>  >>>> PTBAS
 <Dec21-2012> <09:35:21>  >>>> CYCLE
 <Dec21-2012> <09:35:21>    1
 <Dec21-2012> <09:35:21>    2  ErrMat   4.46457591  MaxEl -2.19122136
 <Dec21-2012> <09:35:21>    3  ErrMat   1.42899028  MaxEl  0.55036085
 <Dec21-2012> <09:35:21>    4  ErrMat   1.07990800  MaxEl  0.43017454
 <Dec21-2012> <09:35:21>    5  ErrMat   0.08353887  MaxEl  0.04357166
 <Dec21-2012> <09:35:22>    6  ErrMat   0.01790851  MaxEl -0.00754219
 <Dec21-2012> <09:35:22>    7  ErrMat   0.00211206  MaxEl  0.00109406
 <Dec21-2012> <09:35:22>    8  ErrMat   0.00016523  MaxEl  0.00008456
 <Dec21-2012> <09:35:22>    9  ErrMat   0.00000089  MaxEl -0.00000046
 <Dec21-2012> <09:35:22>   10  ErrMat   0.00000003  MaxEl -0.00000002
 <Dec21-2012> <09:35:22>   11  ErrMat   0.00000000  MaxEl  0.00000000
 <Dec21-2012> <09:35:22>  SCF converged
 <Dec21-2012> <09:35:22>   12  ErrMat   0.00000000  MaxEl  0.00000000
 <Dec21-2012> <09:35:22>   Solutions with partially occupied orbitals may not be
 <Dec21-2012> <09:35:22>   lowest in energy. You might consider lowering the
 <Dec21-2012> <09:35:22>   symmetry in the input and explicitly specifying integer
 <Dec21-2012> <09:35:22>   occupations. In that case always check that you obtain
 <Dec21-2012> <09:35:22>   an aufbau solution.
 <Dec21-2012> <09:35:22>  >>>> POPAN
 <Dec21-2012> <09:35:22>  >>>> DEBYE
 <Dec21-2012> <09:35:22>  NORMAL TERMINATION
 <Dec21-2012> <09:35:22>  END
NORMAL TERMINATION

 *******************************************************************************
 *                                                                             *
 *  -------------------------------------                                      *
 *   Amsterdam Density Functional  (ADF)         2012.01   January 26, 2012    *
 *  -------------------------------------                                      *
 *                                               Build 201205311514            *
 *                                                                             *
 *                                                                             *
 *                            =====================                            *
 *                            |                   |                            *
 *                            |     D I R A C     |                            *
 *                            |                   |                            *
 *                            =====================                            *
 *                                                                             *
 *                                                                             *
 *   Online information and documentation:  http://www.scm.com                 *
 *   E-mail:  support@scm.com   info@scm.com                                   *
 *                                                                             *
 *   Scientific publications using ADF results must be properly referenced     *
 *   See the User Manuals (or the web site) for recommended citations          *
 *   The terms and conditions of the End User License Agreement apply to       *
 *   the use of ADF, http://www.scm.com/Sales/LicAgreement.html                *
 *                                                                             *
 **********************  pentium64_linux / platform_mpi  ***********************
 
 DIRAC 2012.01  RunTime: Dec21-2012 09:35:22  Nodes: 1  Procs: 1

 Temporary files are created in /scratch/kid_0.K2FG3Y

1
 NICKEL ATOM all electron RELATIVISTIC, Point Nuc, A and c fr
 N J RN H ZN XION ANUC CLIGHT
 5000   10100.00000000197.36710137 28.00000000  0.00000000   57.935347  0.1370360E+03
  PH   PHI     EPS        DEL        DELRVR
  0.30  0.30     2500.00  0.00001000  0.00001000
 IDIRC  NC1  NDEBU NPRIN  IPUN IRCOR IWCOR
   1   300     0     0     0     0     0
   XALPHA      XLATTER      RNUC
  0.70000000  0.00000000  0.00000000 Point Charge
   XN   XL   XJ      XE          XZ      XDELL
  1.0  0.0  0.5    -750.000       2.000     0.00000
  2.0  0.0  0.5    -200.000       2.000     0.00000
  2.0  1.0  0.5    -175.000       2.000     0.00000
  2.0  1.0  1.5    -175.000       4.000     0.00000
  3.0  0.0  0.5     -75.000       2.000     0.00000
  3.0  1.0  0.5     -50.000       2.000     0.00000
  3.0  1.0  1.5     -50.000       4.000     0.00000
  3.0  2.0  1.5      -0.500       4.000     0.00000
  3.0  2.0  2.5      -0.500       4.000     0.00000
  4.0  0.0  0.5      -0.250       2.000     0.00000
 ICORP=  0  NPCL=  0  DEMP=0.00  PEPS=0.000000
 R(1)=  0.1000000E-08 D=  0.1005080E+01 RNUC=  0.0000000E+00
 converged at cycle   38  DENSITY AVERAGING    0.2400
  MAXIMUM ERROR IN R.V(R) IS   0.44434975E-05
 Q,EY,EV,EZ,ESUM,ETOT,RHO  0.280000E+02 -0.817414E+02 -0.243196E+04 -0.365287E+04 -0.887709E+03 -0.151860E+04  0.395089E-12


 DIRAC CALCULATION
1                    NICKEL ATOM all electron RELATIVISTIC, Point Nuc, A and c from libtc


 EXCHANGE COEFFICIENT=  0.7000000           TAIL CORRECTION=  0.           NUCLEAR RADIUS=  0.000E+00
0                       ORBITAL    N    L    J     ELECTRONS     EIGENVALUE                DELTA OF EIGENV.

                          1S1/2  1.0  0.0  0.5     2.000       -0.3014124E+03                 0.5376327E-04
                          2S1/2  2.0  0.0  0.5     2.000       -0.3603440E+02                 0.1987675E-04
                          2P1/2  2.0  1.0  0.5     2.000       -0.3148585E+02                 0.2356462E-04
                          2P3/2  2.0  1.0  1.5     4.000       -0.3084283E+02                 0.2317212E-04
                          3S1/2  3.0  0.0  0.5     2.000       -0.4037109E+01                 0.4762033E-05
                          3P1/2  3.0  1.0  0.5     2.000       -0.2648982E+01                 0.4780299E-05
                          3P3/2  3.0  1.0  1.5     4.000       -0.2567086E+01                 0.4693170E-05
                          3D3/2  3.0  2.0  1.5     4.000       -0.3118163E+00                 0.3388274E-05
                          3D5/2  3.0  2.0  2.5     4.000       -0.3029137E+00                 0.3356249E-05
                          4S1/2  4.0  0.0  0.5     2.000       -0.1862829E+00                 0.8017877E-06


                                        NUCLEAR CHARGE=   28.000000
                            INTEGRAL OF CHARGE DENSITY=   28.000000
                           SUM OF THE ORBITAL ENERGIES=   -887.7087
                                          TOTAL ENERGY=  -1518.6008
                                        KINETIC ENERGY=   1544.2518
                             NUCLEAR ATTRACTION ENERGY=  -3652.8742
                             ELECTRON REPULSION ENERGY=    651.3275
                                       EXCHANGE ENERGY=    -61.3061

 *******************************************************************************

                             D I R A C   E X I T
 NORMAL TERMINATION



 =================
 Timing Statistics
 =================
  
 Total Used :                     CPU=        0.45      System=        0.01     Elapsed=        0.48

 Calls  Section                     ( Mean, Percentage )
 ---------------------------------------------------------------------------------------------------
     2  ><      ................      0.00    0.00             0.00    0.00             0.00    0.00
     1  EXIT PROCEDURE .........      0.45  100.00             0.01  100.00             0.48  100.00


 Currently Open Files (EXIT00)
 ====================

 Unit    Access Format  Status   Type       Ident (file)
 -------------------------------------------------------
   3      SEQ    FORM   TRANSP  NORMAL      LOGFILE
                                          ( logfile )


 Buffered I/O statistics
 =======================
 Memory available:                     67108864
 Number of records fitting in memory:     16131
 Input : 100.0% of                            0  *4k bytes
 Output: 100.0% of                            0  *4k bytes
 Records from serial files evicted:           0
                    others evicted:           0
 Hash table lookups:          0 with          0 conflicts (100.00%)
NORMAL TERMINATION
(INPUT FILE)
Create Ni   file=/ifs/projects/jochena/software/adf/adffix2012/atomicdata/ZORA/QZ4P/Ni
XC
hybrid pbe0
End
relativistic ZORA
Corepotentials t12.rel
End Input

 *******************************************************************************
 *                                                                             *
 *  -------------------------------------                                      *
 *   Amsterdam Density Functional  (ADF)         2012.01   January 26, 2012    *
 *  -------------------------------------                                      *
 *                                               Build 201205311514            *
 *                                                                             *
 *                                                                             *
 *                              =================                              *
 *                              |               |                              *
 *                              |     A D F     |                              *
 *                              |               |                              *
 *                              =================                              *
 *                                                                             *
 *                                                                             *
 *   Online information and documentation:  http://www.scm.com                 *
 *   E-mail:  support@scm.com   info@scm.com                                   *
 *                                                                             *
 *   Scientific publications using ADF results must be properly referenced     *
 *   See the User Manuals (or the web site) for recommended citations          *
 *   The terms and conditions of the End User License Agreement apply to       *
 *   the use of ADF, http://www.scm.com/Sales/LicAgreement.html                *
 *                                                                             *
 **********************  pentium64_linux / platform_mpi  ***********************
 
 ADF 2012.01  RunTime: Dec21-2012 09:35:23  Nodes: 1  Procs: 1

 Temporary files are created in /scratch/kid_0.3Cqzfx

 Nickel (QZ, all electron, 14S 8P 5D 3F)



 ===========================
 A T T A C H E D   F I L E S
 ===========================
  
 CREATE - Data File:    /ifs/projects/jochena/software/adf/adffix2012/atomicdata/ZORA/QZ4P/Ni
                        Nickel (QZ, all electron, 14S 8P 5D 3F)
 Core Potentials:
         file : t12.rel



 ===============================
 M O D E L   P A R A M E T E R S
 ===============================
  
 DENSITY FUNCTIONAL POTENTIAL (scf)
    Hybrid:                            PBE0                                    == Not Default ==

 SPIN  (restricted / unrestr.)
    Molecule:                          Restricted                               

 OTHER ASPECTS
    Relativistic Corrections:          scalar (ZORA,SAPA)                       *** SPECIAL ***

[...]
                                    6.25%     1 S              -6.582  1.00     2 H
                                    5.85%     1 S              -6.582  1.00     8 H
                                    5.84%     1 S              -6.582  1.00     5 H
                                    5.82%     1 P:x            -5.041  0.67    17 C
                                    5.82%     1 P:x            -5.041  0.67    14 C
                                    4.94%     1 P:y            -5.041  0.67    18 C
                                    4.93%     1 P:y            -5.041  0.67    15 C
                                    4.82%     1 P:x            -5.041  0.67    19 C
                                    4.81%     1 P:x            -5.041  0.67    16 C
                                    4.39%     1 P:y            -5.041  0.67    17 C
                                    4.39%     1 P:y            -5.041  0.67    14 C
                                    2.65%     1 S              -6.582  1.00     7 H
                                    2.65%     1 S              -6.582  1.00     4 H
                                    2.56%     1 P:x            -5.041  0.67    12 C
                                    2.56%     1 P:x            -5.041  0.67    20 C
                                    2.45%     1 P:y            -5.041  0.67    20 C
                                    2.45%     1 P:y            -5.041  0.67    12 C
                                   -2.27%     3 S               9.553  0.00    20 C
                                   -2.27%     3 S               9.553  0.00    12 C
                                   -2.13%     3 S               9.553  0.00    18 C
                                   -2.12%     3 S               9.553  0.00    15 C
                                   -2.11%     2 S               1.510  0.00    10 H
                                   -2.11%     2 S               1.510  0.00     2 H
                                    1.99%     1 S              -6.582  1.00    11 H
                                    1.99%     1 S              -6.582  1.00     3 H
                                   -1.97%     2 S               1.510  0.00     8 H
                                   -1.97%     2 S               1.510  0.00     5 H
                                   -1.97%     3 S              11.680  0.00    10 H
                                   -1.97%     3 S              11.680  0.00     2 H
                                   -1.84%     3 S              11.680  0.00     8 H
                                   -1.84%     3 S              11.680  0.00     5 H
                                    1.50%     1 P:x            -5.041  0.67    21 C
                                    1.50%     1 P:x            -5.041  0.67    13 C
                                   -1.41%     2 P:y             5.524  0.00    18 C
                                   -1.41%     2 P:y             5.524  0.00    15 C
                                   -1.38%     2 P:y             5.524  0.00    17 C
                                   -1.38%     2 P:y             5.524  0.00    14 C
                                    1.16%     1 P:y            12.103  0.00    10 H
                                    1.16%     1 P:y            12.103  0.00     2 H
                                    1.04%     1 P:x            12.103  0.00     8 H
                                    1.04%     1 P:x            12.103  0.00     5 H



 ===============================================================================
 Electrostatic potential at the Nuclei due to valence electrons and other nuclei
 ===============================================================================
  
         Atom                  Potential
         ----                  ---------
     1)   Ni                130.95751450
     2)   H                   1.09843990
     3)   C                  14.77458376
     4)   H                   1.09844203
     5)   C                  14.77458587
     6)   H                   1.09844074
     7)   C                  14.77458528
     8)   H                   1.09844177
     9)   C                  14.77458646
    10)   H                   1.09844073
    11)   C                  14.77458370
    12)   H                   1.09844415
    13)   C                  14.77458832
    14)   H                   1.09844115
    15)   C                  14.77458699
    16)   H                   1.09844335
    17)   C                  14.77459025
    18)   H                   1.09844298
    19)   C                  14.77458767
    20)   C                  14.77458388
    21)   H                   1.09844137
 
 
 ========================
 No memory problems found
 ========================
 
 Maximum number of active allocate calls:        4834
 
 *******************************************************************************

                             A D F   E X I T
 NORMAL TERMINATION



 =================
 Timing Statistics
 =================
  
 Total Used :                     CPU=     1093.04      System=       50.34     Elapsed=     1145.58

 Calls  Section                     ( Mean, Percentage )
 ---------------------------------------------------------------------------------------------------
     3  ><      ................      0.00    0.00             0.00    0.00             0.00    0.00
     1  INIT    ................      0.45    0.04             0.19    0.37             0.65    0.06
     1  GEOMET  ................      0.06    0.01             0.08    0.15             0.14    0.01
     1  FRAGM   ................      0.03    0.00             0.02    0.05             0.06    0.00
     1  INPUTA  ................      0.00    0.00             0.00    0.00             0.00    0.00
     1  ATDEN   ................      0.01    0.00             0.00    0.01             0.02    0.00
     1  MAINSY  ................      0.03    0.00             0.03    0.05             0.06    0.00
     1  SYMFIT  ................      0.02    0.00             0.00    0.00             0.02    0.00
     1  CORORT  ................      0.00    0.00             0.00    0.00             0.00    0.00
     1  SYMORB  ................      0.02    0.00             0.00    0.01             0.02    0.00
     1  FITINT  ................      0.63    0.06             0.01    0.02             0.64    0.06
     1  CLSMAT  ................      0.37    0.03             0.02    0.03             0.85    0.07
     1  ORTHON  ................      0.20    0.02             0.10    0.20             0.34    0.03
     1  ETALOW  ................      0.02    0.00             0.00    0.00             0.02    0.00
     1  GENPT   ................      0.89    0.08             0.09    0.17             0.98    0.09
     1  PTBAS   ................     11.20    1.02             0.05    0.11            11.26    0.98
    19  FOCKY   ................     16.00   27.82             0.35   13.04            16.41   27.21
    19  FOCKTR  ................     35.62   61.92             1.90   71.58            37.54   62.26
    19  FOCKNM  ................      0.00    0.00             0.00    0.00             0.00    0.00
    19  SDIIS   ................      0.05    0.08             0.01    0.27             0.05    0.09
    19  EMERGE  ................      0.43    0.75             0.07    2.61             0.50    0.83
     1  COREPS  ................      0.58    0.05             0.01    0.02             0.59    0.05
     1  TOTEN   ................     87.16    7.97             4.88    9.69            92.07    8.04
     1  POPAN   ................      0.10    0.01             0.05    0.10             0.15    0.01
     1  DEBYE   ................      0.23    0.02             0.15    0.31             0.39    0.03
     1  INPUTE  ................      0.00    0.00             0.00    0.00             0.00    0.00
     1  SYMORE  ................      0.00    0.00             0.00    0.00             0.00    0.00
     4  METS    ................      0.00    0.00             0.00    0.01             0.01    0.00
     1  CETS    ................      0.26    0.02             0.19    0.38             0.45    0.04
     1  ELNRGY  ................      0.01    0.00             0.00    0.01             0.02    0.00
     1  POPUL   ................      0.62    0.06             0.27    0.53             0.89    0.08
     1  QMPOT   ................      0.00    0.00             0.00    0.00             0.00    0.00
     1  EXIT PROCEDURE .........      0.28    0.03             0.14    0.28             0.43    0.04


 Currently Open Files (EXIT00)
 ====================

 Unit    Access Format  Status   Type       Ident (file)
 -------------------------------------------------------
   3      SEQ    FORM   TRANSP  NORMAL      LOGFILE
                                          ( logfile )


 Buffered I/O statistics
 =======================
 Memory available:                     67108864
 Number of records fitting in memory:     16131
 Input :   3.4% of                      1008787  *4k bytes
 Output:   4.1% of                       147422  *4k bytes
 Records from serial files evicted:       60610
                    others evicted:      -18270
 Hash table lookups:    3346399 with     491095 conflicts ( 14.68%)

 ***************************************************************************************************
 (LOGFILE)
 <Dec21-2012> <09:35:19>  DIRAC 2012.01  RunTime: Dec21-2012 09:35:19  Nodes: 1  Procs: 1
 <Dec21-2012> <09:35:19>  NORMAL TERMINATION
 <Dec21-2012> <09:35:19>  END
 <Dec21-2012> <09:35:20>  ADF 2012.01  RunTime: Dec21-2012 09:35:20  Nodes: 1  Procs: 1
 <Dec21-2012> <09:35:20>  Hydrogen (TZ2P + 2Z 3Z 4Z 100Z)
 <Dec21-2012> <09:35:20>  RunType   : CREATE
 <Dec21-2012> <09:35:20>  Net Charge: 0 (Nuclei minus Electrons)
 <Dec21-2012> <09:35:20>  Symmetry  : ATOM
 <Dec21-2012> <09:35:20>  >>>> CORORT
 <Dec21-2012> <09:35:20>  >>>> FITINT
 <Dec21-2012> <09:35:20>  >>>> CLSMAT
 <Dec21-2012> <09:35:20>  >>>> ORTHON
 <Dec21-2012> <09:35:20>  >>>> GENPT
 <Dec21-2012> <09:35:20>  Acc.Num.Int.=  10.000
 <Dec21-2012> <09:35:20>  Block Length=  78
 <Dec21-2012> <09:35:20>  >>>> PTBAS
 <Dec21-2012> <09:35:20>  >>>> CYCLE
 <Dec21-2012> <09:35:20>    1
 <Dec21-2012> <09:35:20>    2  ErrMat   0.04776102  MaxEl  0.02875878
 <Dec21-2012> <09:35:20>    3  ErrMat   0.00671049  MaxEl -0.00592243
 <Dec21-2012> <09:35:20>    4  ErrMat   0.00029822  MaxEl -0.00020751
 <Dec21-2012> <09:35:20>    5  ErrMat   0.00001074  MaxEl -0.00000761
 <Dec21-2012> <09:35:20>    6  ErrMat   0.00000020  MaxEl  0.00000017
 <Dec21-2012> <09:35:20>    7  ErrMat   0.00000000  MaxEl  0.00000000
 <Dec21-2012> <09:35:21>  SCF converged
 <Dec21-2012> <09:35:21>    8  ErrMat   0.00000000  MaxEl  0.00000000
 <Dec21-2012> <09:35:21>   Solutions with partially occupied orbitals may not be
 <Dec21-2012> <09:35:21>   lowest in energy. You might consider lowering the
 <Dec21-2012> <09:35:21>   symmetry in the input and explicitly specifying integer
 <Dec21-2012> <09:35:21>   occupations. In that case always check that you obtain
 <Dec21-2012> <09:35:21>   an aufbau solution.
 <Dec21-2012> <09:35:21>  >>>> POPAN
 <Dec21-2012> <09:35:21>  >>>> DEBYE
 <Dec21-2012> <09:35:21>  NORMAL TERMINATION
 <Dec21-2012> <09:35:21>  END
 <Dec21-2012> <09:35:21>  DIRAC 2012.01  RunTime: Dec21-2012 09:35:21  Nodes: 1  Procs: 1
 <Dec21-2012> <09:35:21>  NORMAL TERMINATION
 <Dec21-2012> <09:35:21>  END
 <Dec21-2012> <09:35:21>  ADF 2012.01  RunTime: Dec21-2012 09:35:21  Nodes: 1  Procs: 1
 <Dec21-2012> <09:35:21>  Carbon (TZ2P + 2Z 3Z 4Z 100Z)
 <Dec21-2012> <09:35:21>  RunType   : CREATE
 <Dec21-2012> <09:35:21>  Net Charge: 0 (Nuclei minus Electrons)
 <Dec21-2012> <09:35:21>  Symmetry  : ATOM
 <Dec21-2012> <09:35:21>  >>>> CORORT
 <Dec21-2012> <09:35:21>  >>>> FITINT
 <Dec21-2012> <09:35:21>  >>>> CLSMAT
 <Dec21-2012> <09:35:21>  >>>> ORTHON
 <Dec21-2012> <09:35:21>  >>>> GENPT
 <Dec21-2012> <09:35:21>  Acc.Num.Int.=  10.000
 <Dec21-2012> <09:35:21>  Block Length= 100
 <Dec21-2012> <09:35:21>  >>>> PTBAS
 <Dec21-2012> <09:35:21>  >>>> CYCLE
 <Dec21-2012> <09:35:21>    1
 <Dec21-2012> <09:35:21>    2  ErrMat   4.46457591  MaxEl -2.19122136
 <Dec21-2012> <09:35:21>    3  ErrMat   1.42899028  MaxEl  0.55036085
 <Dec21-2012> <09:35:21>    4  ErrMat   1.07990800  MaxEl  0.43017454
 <Dec21-2012> <09:35:21>    5  ErrMat   0.08353887  MaxEl  0.04357166
 <Dec21-2012> <09:35:22>    6  ErrMat   0.01790851  MaxEl -0.00754219
 <Dec21-2012> <09:35:22>    7  ErrMat   0.00211206  MaxEl  0.00109406
 <Dec21-2012> <09:35:22>    8  ErrMat   0.00016523  MaxEl  0.00008456
 <Dec21-2012> <09:35:22>    9  ErrMat   0.00000089  MaxEl -0.00000046
 <Dec21-2012> <09:35:22>   10  ErrMat   0.00000003  MaxEl -0.00000002
 <Dec21-2012> <09:35:22>   11  ErrMat   0.00000000  MaxEl  0.00000000
 <Dec21-2012> <09:35:22>  SCF converged
 <Dec21-2012> <09:35:22>   12  ErrMat   0.00000000  MaxEl  0.00000000
 <Dec21-2012> <09:35:22>   Solutions with partially occupied orbitals may not be
 <Dec21-2012> <09:35:22>   lowest in energy. You might consider lowering the
 <Dec21-2012> <09:35:22>   symmetry in the input and explicitly specifying integer
 <Dec21-2012> <09:35:22>   occupations. In that case always check that you obtain
 <Dec21-2012> <09:35:22>   an aufbau solution.
 <Dec21-2012> <09:35:22>  >>>> POPAN
 <Dec21-2012> <09:35:22>  >>>> DEBYE
 <Dec21-2012> <09:35:22>  NORMAL TERMINATION
 <Dec21-2012> <09:35:22>  END
 <Dec21-2012> <09:35:22>  DIRAC 2012.01  RunTime: Dec21-2012 09:35:22  Nodes: 1  Procs: 1
 <Dec21-2012> <09:35:22>  NORMAL TERMINATION
 <Dec21-2012> <09:35:22>  END
 <Dec21-2012> <09:35:23>  ADF 2012.01  RunTime: Dec21-2012 09:35:23  Nodes: 1  Procs: 1
 <Dec21-2012> <09:35:23>  Nickel (QZ, all electron, 14S 8P 5D 3F)
 <Dec21-2012> <09:35:23>  RunType   : CREATE
 <Dec21-2012> <09:35:23>  Net Charge: 0 (Nuclei minus Electrons)
 <Dec21-2012> <09:35:23>  Symmetry  : ATOM
 <Dec21-2012> <09:35:23>  >>>> CORORT
 <Dec21-2012> <09:35:23>  >>>> FITINT
 <Dec21-2012> <09:35:23>  >>>> CLSMAT
 <Dec21-2012> <09:35:23>  >>>> ORTHON
 <Dec21-2012> <09:35:23>  >>>> GENPT
 <Dec21-2012> <09:35:23>  Acc.Num.Int.=  10.000
 <Dec21-2012> <09:35:23>  Block Length= 102
 <Dec21-2012> <09:35:23>  >>>> PTBAS
 <Dec21-2012> <09:35:23>  >>>> CYCLE
 <Dec21-2012> <09:35:23>    1
 <Dec21-2012> <09:35:23>    2  ErrMat 108.71402910  MaxEl 19.17646721
 <Dec21-2012> <09:35:23>    3  ErrMat  40.86262048  MaxEl 12.79728178
 <Dec21-2012> <09:35:23>    4  ErrMat  31.58954893  MaxEl -9.38273527
 <Dec21-2012> <09:35:23>    5  ErrMat  22.66340751  MaxEl  7.06028061
 <Dec21-2012> <09:35:23>    6  ErrMat  11.27221587  MaxEl  2.37804089
 <Dec21-2012> <09:35:23>    7  ErrMat   9.60043545  MaxEl  2.38533074
 <Dec21-2012> <09:35:23>    8  ErrMat   4.67637363  MaxEl  1.22797242
 <Dec21-2012> <09:35:23>    9  ErrMat   0.42042057  MaxEl -0.08841453
 <Dec21-2012> <09:35:23>   10  ErrMat   0.38141504  MaxEl -0.13232448
 <Dec21-2012> <09:35:23>   11  ErrMat   0.22669188  MaxEl -0.07759528
 <Dec21-2012> <09:35:23>   12  ErrMat   0.01060249  MaxEl  0.00360420
 <Dec21-2012> <09:35:24>   13  ErrMat   0.00036507  MaxEl  0.00012114
 <Dec21-2012> <09:35:24>   14  ErrMat   0.00000351  MaxEl  0.00000077
 <Dec21-2012> <09:35:24>   15  ErrMat   0.00000274  MaxEl  0.00000094
 <Dec21-2012> <09:35:24>   16  ErrMat   0.00000002  MaxEl  0.00000000
 <Dec21-2012> <09:35:24>  SCF converged
 <Dec21-2012> <09:35:24>   17  ErrMat   0.00000001  MaxEl  0.00000000
 <Dec21-2012> <09:35:24>   Solutions with partially occupied orbitals may not be
 <Dec21-2012> <09:35:24>   lowest in energy. You might consider lowering the
 <Dec21-2012> <09:35:24>   symmetry in the input and explicitly specifying integer
 <Dec21-2012> <09:35:24>   occupations. In that case always check that you obtain
 <Dec21-2012> <09:35:24>   an aufbau solution.
 <Dec21-2012> <09:35:24>  >>>> POPAN
 <Dec21-2012> <09:35:24>  >>>> DEBYE
 <Dec21-2012> <09:35:24>  NORMAL TERMINATION
 <Dec21-2012> <09:35:24>  END
 <Dec21-2012> <09:35:25>  ADF 2012.01  RunTime: Dec21-2012 09:35:25  Nodes: 2  Procs: 16
 <Dec21-2012> <09:35:26>  *** (NO TITLE) ***
 <Dec21-2012> <09:35:26>  RunType   : SINGLE POINT
 <Dec21-2012> <09:35:26>  Net Charge: 0 (Nuclei minus Electrons)
 <Dec21-2012> <09:35:26>  Spin polar: 2 (Spin_A minus Spin_B electrons)
 <Dec21-2012> <09:35:26>  Symmetry  : NOSYM
 <Dec21-2012> <09:35:26>  key DEPENDENCY set
 <Dec21-2012> <09:35:26>  >>>> FRAGM
 <Dec21-2012> <09:35:26>  >>>> CORORT
 <Dec21-2012> <09:35:26>  >>>> FITINT
 <Dec21-2012> <09:35:27>  >>>> CLSMAT
 <Dec21-2012> <09:35:28>  >>>> ORTHON
 <Dec21-2012> <09:35:28>  BASIS SET DEPENDENT IN CHGBAS
 <Dec21-2012> <09:35:28>  >>>> GENPT
 <Dec21-2012> <09:35:28>  Acc.Num.Int.=   7.000
 <Dec21-2012> <09:35:29>  Block Length= 128
 <Dec21-2012> <09:35:29>  >>>> PTBAS
 <Dec21-2012> <09:35:40>  FITFIT
 <Dec21-2012> <09:35:40>  AOAOFIT
 <Dec21-2012> <09:35:40>         atom:     1
 <Dec21-2012> <09:36:39>         atom:     2
 <Dec21-2012> <09:36:41>         atom:     3
 <Dec21-2012> <09:36:44>         atom:     4
 <Dec21-2012> <09:36:47>         atom:     5
 <Dec21-2012> <09:36:49>         atom:     6
 <Dec21-2012> <09:36:52>         atom:     7
 <Dec21-2012> <09:36:55>         atom:     8
 <Dec21-2012> <09:36:57>         atom:     9
 <Dec21-2012> <09:37:00>         atom:    10
 <Dec21-2012> <09:37:03>         atom:    11
 <Dec21-2012> <09:37:06>         atom:    12
 <Dec21-2012> <09:37:13>         atom:    13
 <Dec21-2012> <09:37:21>         atom:    14
 <Dec21-2012> <09:37:30>         atom:    15
 <Dec21-2012> <09:37:37>         atom:    16
 <Dec21-2012> <09:37:45>         atom:    17
 <Dec21-2012> <09:37:54>         atom:    18
 <Dec21-2012> <09:38:01>         atom:    19
 <Dec21-2012> <09:38:10>         atom:    20
 <Dec21-2012> <09:38:17>         atom:    21
 <Dec21-2012> <09:38:26>  >>>> CYCLE
 <Dec21-2012> <09:39:08>    1
 <Dec21-2012> <09:39:53>    2  ErrMat   1.74019573  MaxEl -0.16857257
 <Dec21-2012> <09:40:36>    3  ErrMat   1.05712525  MaxEl  0.11861989
 <Dec21-2012> <09:41:20>    4  ErrMat   1.32328813  MaxEl -0.12729494
 <Dec21-2012> <09:42:04>    5  ErrMat   0.18704903  MaxEl -0.02667807
 <Dec21-2012> <09:42:48>    6  ErrMat   0.15134157  MaxEl -0.01953096
 <Dec21-2012> <09:43:31>    7  ErrMat   0.01794594  MaxEl -0.00502126
 <Dec21-2012> <09:44:14>    8  ErrMat   0.01267324  MaxEl  0.00492750
 <Dec21-2012> <09:44:58>    9  ErrMat   0.00381828  MaxEl -0.00071209
 <Dec21-2012> <09:45:42>   10  ErrMat   0.00082280  MaxEl  0.00034745
 <Dec21-2012> <09:46:26>   11  ErrMat   0.00026769  MaxEl -0.00003225
 <Dec21-2012> <09:47:11>   12  ErrMat   0.00008399  MaxEl  0.00001190
 <Dec21-2012> <09:47:55>   13  ErrMat   0.00002073  MaxEl  0.00000729
 <Dec21-2012> <09:48:38>   14  ErrMat   0.00001317  MaxEl -0.00000163
 <Dec21-2012> <09:49:22>   15  ErrMat   0.00000484  MaxEl -0.00000152
 <Dec21-2012> <09:50:06>   16  ErrMat   0.00000177  MaxEl  0.00000066
 <Dec21-2012> <09:50:50>   17  ErrMat   0.00000093  MaxEl  0.00000010
 <Dec21-2012> <09:51:33>   18  ErrMat   0.00000037  MaxEl -0.00000005
 <Dec21-2012> <09:51:33>  SCF converged
 <Dec21-2012> <09:52:54>   19  ErrMat   0.00000009  MaxEl -0.00000002
 <Dec21-2012> <09:52:57>  >>>> TOTEN
 <Dec21-2012> <09:54:29>  >>>> POPAN
 <Dec21-2012> <09:54:29>  >>>> DEBYE
 <Dec21-2012> <09:54:29>  >>>> AMETS
 <Dec21-2012> <09:54:30>   Bond Energy          -5.78454383 a.u.
 <Dec21-2012> <09:54:30>   Bond Energy        -157.40544633 eV
 <Dec21-2012> <09:54:30>   Bond Energy       -3629.86       kcal/mol
 <Dec21-2012> <09:54:30>  >>>> POPUL
 <Dec21-2012> <09:54:31>  NORMAL TERMINATION
 <Dec21-2012> <09:54:31>  END
NORMAL TERMINATION
NORMAL TERMINATION
NORMAL TERMINATION
NORMAL TERMINATION
NORMAL TERMINATION
NORMAL TERMINATION
NORMAL TERMINATION
NORMAL TERMINATION
NORMAL TERMINATION
NORMAL TERMINATION
NORMAL TERMINATION
NORMAL TERMINATION
NORMAL TERMINATION
NORMAL TERMINATION
NORMAL TERMINATION
NORMAL TERMINATION
