(INPUT FILE)
allinone
nmr
 u1k best
 calc all
 out iso tens
 atoms 1 2
end
end input

 *******************************************************************************
 *                                                                             *
 *  -------------------------------------                                      *
 *   Amsterdam Density Functional  (ADF)         2012.01   January 26, 2012    *
 *  -------------------------------------                                      *
 *                                               Build 201205311514            *
 *                                                                             *
 *                                                                             *
 *                              =================                              *
 *                              |               |                              *
 *                              |     N M R     |                              *
 *                              |               |                              *
 *                              =================                              *
 *                                                                             *
 *                                                                             *
 *   Online information and documentation:  http://www.scm.com                 *
 *   E-mail:  support@scm.com   info@scm.com                                   *
 *                                                                             *
 *   Scientific publications using ADF results must be properly referenced     *
 *   See the User Manuals (or the web site) for recommended citations          *
 *   The terms and conditions of the End User License Agreement apply to       *
 *   the use of ADF, http://www.scm.com/Sales/LicAgreement.html                *
 *                                                                             *
 **********************  pentium64_linux / platform_mpi  ***********************
 
 NMR 2012.01  RunTime: Sep11-2012 12:41:25  Nodes: 1  Procs: 1

 Temporary files are created in /scratch/kid_0.QRlc11

                    
                      **********************************    
                      ||******************************||    
                      ||                              ||    
                      ||  ##   ##  ###  ###  ######   ||    
                      ||  ###  ##  ########  ##   ##  ||    
                      ||  #### ##  ## ## ##  ######   ||    
                      ||  ## ####  ##    ##  ## ##    ||    
                      ||  ##  ###  ##    ##  ##  ##   ||    
                      ||  ##   ##  ##    ##  ##   ##  ||    
                      ||                              ||    
                      | ****************************** |    
                      **********************************    
                    
                            Written for ADF by              
                    
                    Stephen K. Wolff & Georg Schreckenbach  
                    
                      The research group of Tom Ziegler     
                            University of Calgary           
                               Alberta, Canada              
                    
                      Speedups, NBO analysis, g-tensors, by 
                         Jochen Autschbach, SUNY Buffalo
                    
                    --------------------------------------- 
                    
                    
                                 References:                
                                 ===========                
                    
                    1. G. Schreckenbach and T. Ziegler,     
                       J. Phys. Chem. 99 (1995) 606         
                    
                    2. G. Schreckenbach and T. Ziegler      
                       Int. J. Quantum CHem. 61 (1997) 899  
                    
                    3. S. K. Wolff and T. Ziegler           
                       J. Chem. Phys. 109 (1998) 895        
                    
                    --------------------------------------- 
                    
 
################################################################################
 
 
################################################################################
 
 
              <><><><><><><><><><><><><><><><><><><><><><><><><>
 
                 GENERAL ADF INFORMATION:
                 ------------------------
 
                 TITLE:    *** (NO TITLE) ***                           
                 JOB ID:   ADF 2012.01  RunTime: Sep11-2012 12:39:50  No
                 NONLXC:   PBEc PBEx                                    
                 SYMMETRY: NOSYM                                        
                  
                 IOPREL:   3
                 ------>  Scalar ZORA + core pot. (Re MOs)
                 ------>  Core pot used in K, Full pot used in V
 
              <><><><><><><><><><><><><><><><><><><><><><><><><>
 
              ==================================================
 
                 NUCLEAR COORDINATES (ANGSTROMS):
                 --------------------------------
 
                 O  (  1):      10.1534      1.5038      5.5459
                 O  (  2):       9.1661      1.3640      6.2269
 
              ==================================================
 
              <><><><><><><><><><><><><><><><><><><><><><><><><>
 
                 NUMBERS:
                 --------
 
                 number of electrons:     16.00
 
                 ---   AOs   ---           ---  MOs alfa / beta ---
                 ncor =      0            nocc =      9      7
                 nval =     68            nvir =     51     53
                 nbas =     68            nmo  =     60     60
                 naos =    68             nsot =    60
              ==================================================
                  
                 --------------------------
                     ATOM TYPE: O                        
                 --------------------------
                 === BASIS
                   1S  800.00     VALENCE
                   1S   32.00     VALENCE
                   1S   24.00     VALENCE
                   1S   16.00     VALENCE
                   1S    9.80     VALENCE
                   1S    6.80     VALENCE
                   2S    7.58     VALENCE
                   2S    2.88     VALENCE
                   2S    1.72     VALENCE
                   2P    4.08     VALENCE
                   2P    2.08     VALENCE
                   2P    1.12     VALENCE
                   3D    2.00     VALENCE
                   4F    3.00     VALENCE
                  
              ==================================================
              <><><><><><><><><><><><><><><><><><><><><><><><><>
 
                 TENSOR INFORMATION:
                 -------------------
 
                              CALC                   U1K
 
                 paramagnetic  = T     mass-velocity = F
                 diamagnetic   = T     Darwin        = F
                 Fermi-cont.   = F     Zeeman        = F
                 ZORA SO       = F     ZORA SO       = F
                 ZORA SCALE    = T     ZORA SO FULL  = F
                                       E IN U1 SCL   = F
 
              <><><><><><><><><><><><><><><><><><><><><><><><><>
 
              <><><><><><><><><><><><><><><><><><><><><><><><><>
 
                 OUTPUT SWITCHES:
                 ----------------
 
                           ISO = T                F1 = F
                          TENS = T                S1 = F
                           EIG = F                U1 = F
                           AOP = F                B1 = F
                           AOD = F                F  = F
                           AOF = F                 S = F
                          INFO = F              REFS = F
 
              <><><><><><><><><><><><><><><><><><><><><><><><><>
 
              --------------------------------------------------
 
                 CALCULATE THE POTENTIAL? F
                  
                 ---> Potential is already on TAPE10.
                      It will not be re-calculated.
 
              --------------------------------------------------



 ===========================
 L I N E A R   S C A L I N G
 ===========================
  

 Overlap cut-off criterion AO matrix elements:     0.1000000000E-08


 Test of Precision of the Numerical Integration Grid
 ===================================================

 Integral of the Total Core Density:                   0.00000000000000
################################################################################
********************************************************************************
****  N U C L E U S : O(1)
 
 Atom input number in the ADF calculation: O(1)
 Internal NMR numbering of atoms: O(1)
 
 NBO: we are working with a Cartesian (6d/10f) basis
 
================================================================================
 
 
===  PARAMAGNETIC NMR SHIELDING TENSORS (ppm)
 
    ===     paramagnetic b^(1) tensor       ===     paramagnetic u^(1) tensor
    -----------------------------------     -----------------------------------
           0.000     0.000     0.000            -230.894    65.978  -321.289
           0.000     0.000     0.000              65.978  -687.354   -45.509
           0.000     0.000     0.000            -321.289   -45.509  -475.092
    -----------------------------------     -----------------------------------
              isotropic =      0.000                  isotropic =   -464.447

    ===     paramagnetic s^(1) tensor       ===     paramagnetic gauge tensor
    -----------------------------------     -----------------------------------
          27.805    -7.943    38.681               0.000     0.000     0.000
          -7.943    82.760     5.479               0.000     0.000     0.000
          38.681     5.479    57.205               0.000     0.000     0.000
    -----------------------------------     -----------------------------------
              isotropic =     55.924                  isotropic =      0.000

                        ***********************************
                        CARTESIAN AXIS REPRESENTATION

                        ==== total paramagnetic tensor
                        -----------------------------------
                            -203.088    58.035  -282.608
                              58.035  -604.594   -40.030
                            -282.608   -40.030  -417.886
                        -----------------------------------
                                  isotropic =   -408.523

                        ***********************************
                        -----------------------------------
                        PRINCIPAL AXIS REPRESENTATION

                        ==== Principal components:

                            -612.814  -612.814     0.060
 
                        ==== Principal Axis System:

                               0.530     0.224    -0.818
                               0.230    -0.966    -0.116
                               0.816     0.127     0.564
                        -----------------------------------
 
================================================================================
 
 
===  DIAMAGNETIC NMR SHIELDING TENSORS (ppm)
 
    ===       diamagnetic core tensor       ===    diamagnetic valence tensor
    -----------------------------------     -----------------------------------
           0.000     0.000     0.000             398.183     3.532   -17.198
           0.000     0.000     0.000               3.532   373.750    -2.436
           0.000     0.000     0.000             -17.198    -2.436   385.112
    -----------------------------------     -----------------------------------
              isotropic =      0.000                  isotropic =    385.682

                        ***********************************
                        CARTESIAN AXIS REPRESENTATION

                        ==== total diamagnetic tensor
                        -----------------------------------
                             398.183     3.532   -17.198
                               3.532   373.750    -2.436
                             -17.198    -2.436   385.112
                        -----------------------------------
                                  isotropic =    385.682

                        ***********************************
                        -----------------------------------
                        PRINCIPAL AXIS REPRESENTATION

                        ==== Principal components:

                             373.250   373.250   410.546
 
                        ==== Principal Axis System:

                               0.575     0.037    -0.818
                              -0.102    -0.988    -0.116
                               0.812    -0.150     0.564
                        -----------------------------------
 
================================================================================
 
 
===  TOTAL NMR SHIELDING TENSOR (ppm)
 
                        ***********************************
                        CARTESIAN AXIS REPRESENTATION

                        ==== total shielding tensor
                        -----------------------------------
                             195.095    61.567  -299.805
                              61.567  -230.844   -42.465
                            -299.805   -42.465   -32.774
                        -----------------------------------
                                  isotropic =    -22.841

                        ***********************************
                        -----------------------------------
                        PRINCIPAL AXIS REPRESENTATION

                        ==== Principal components:

                            -239.564  -239.564   410.605
 
                        ==== Principal Axis System:

                               0.531     0.224    -0.818
                               0.229    -0.967    -0.116
                               0.816     0.126     0.564
                        -----------------------------------
################################################################################
********************************************************************************
****  N U C L E U S : O(2)
 
 Atom input number in the ADF calculation: O(2)
 Internal NMR numbering of atoms: O(2)
 
 NBO: we are working with a Cartesian (6d/10f) basis
 
================================================================================
 
 
===  PARAMAGNETIC NMR SHIELDING TENSORS (ppm)
 
    ===     paramagnetic b^(1) tensor       ===     paramagnetic u^(1) tensor
    -----------------------------------     -----------------------------------
           0.000     0.000     0.000            -230.894    65.978  -321.289
           0.000     0.000     0.000              65.978  -687.354   -45.509
           0.000     0.000     0.000            -321.289   -45.509  -475.092
    -----------------------------------     -----------------------------------
              isotropic =      0.000                  isotropic =   -464.447

    ===     paramagnetic s^(1) tensor       ===     paramagnetic gauge tensor
    -----------------------------------     -----------------------------------
          27.805    -7.943    38.681               0.000     0.000     0.000
          -7.943    82.760     5.479               0.000     0.000     0.000
          38.681     5.479    57.205               0.000     0.000     0.000
    -----------------------------------     -----------------------------------
              isotropic =     55.924                  isotropic =      0.000

                        ***********************************
                        CARTESIAN AXIS REPRESENTATION

                        ==== total paramagnetic tensor
                        -----------------------------------
                            -203.088    58.035  -282.608
                              58.035  -604.594   -40.030
                            -282.608   -40.030  -417.886
                        -----------------------------------
                                  isotropic =   -408.523

                        ***********************************
                        -----------------------------------
                        PRINCIPAL AXIS REPRESENTATION

                        ==== Principal components:

                            -612.814  -612.814     0.060
 
                        ==== Principal Axis System:

                               0.573    -0.060    -0.818
                              -0.265    -0.957    -0.116
                               0.776    -0.283     0.564
                        -----------------------------------
 
================================================================================
 
 
===  DIAMAGNETIC NMR SHIELDING TENSORS (ppm)
 
    ===       diamagnetic core tensor       ===    diamagnetic valence tensor
    -----------------------------------     -----------------------------------
           0.000     0.000     0.000             398.183     3.532   -17.198
           0.000     0.000     0.000               3.532   373.750    -2.436
           0.000     0.000     0.000             -17.198    -2.436   385.112
    -----------------------------------     -----------------------------------
              isotropic =      0.000                  isotropic =    385.682

                        ***********************************
                        CARTESIAN AXIS REPRESENTATION

                        ==== total diamagnetic tensor
                        -----------------------------------
                             398.183     3.532   -17.198
                               3.532   373.750    -2.436
                             -17.198    -2.436   385.112
                        -----------------------------------
                                  isotropic =    385.682

                        ***********************************
                        -----------------------------------
                        PRINCIPAL AXIS REPRESENTATION

                        ==== Principal components:

                             373.250   373.250   410.546
 
                        ==== Principal Axis System:

                               0.543     0.191    -0.818
                               0.169    -0.979    -0.116
                               0.822     0.076     0.564
                        -----------------------------------
 
================================================================================
 
 
===  TOTAL NMR SHIELDING TENSOR (ppm)
 
                        ***********************************
                        CARTESIAN AXIS REPRESENTATION

                        ==== total shielding tensor
                        -----------------------------------
                             195.095    61.567  -299.805
                              61.567  -230.844   -42.466
                            -299.805   -42.466   -32.774
                        -----------------------------------
                                  isotropic =    -22.841

                        ***********************************
                        -----------------------------------
                        PRINCIPAL AXIS REPRESENTATION

                        ==== Principal components:

                            -239.564  -239.564   410.605
 
                        ==== Principal Axis System:

                               0.573    -0.059    -0.818
                              -0.264    -0.958    -0.116
                               0.776    -0.282     0.564
                        -----------------------------------
 *******************************************************************************

                             N M R   E X I T
 NORMAL TERMINATION



 =================
 Timing Statistics
 =================
  
 Total Used :                     CPU=        2.48      System=        0.12     Elapsed=        2.64

 Calls  Section                     ( Mean, Percentage )
 ---------------------------------------------------------------------------------------------------
     3  ><      ................      0.00    0.36             0.00    0.84             0.01    0.72
     1  INPUTT  ................      0.00    0.08             0.00    0.00             0.00    0.07
     1  INIT    ................      0.01    0.56             0.03   21.85             0.04    1.68
     1  ZAOF1K  ................      1.05   42.33             0.06   51.26             1.12   42.49
     1  ZU1K    ................      0.00    0.04             0.00    0.84             0.00    0.07
     2  ZAODKK  ................      0.70   56.38             0.01   25.21             0.72   54.57
     1  ZSG     ................      0.00    0.20             0.00    0.00             0.01    0.28
     1  EXIT PROCEDURE .........      0.00    0.04             0.00    0.00             0.00    0.12


 Currently Open Files (EXIT00)
 ====================

 Unit    Access Format  Status   Type       Ident (file)
 -------------------------------------------------------
   3      SEQ    FORM   TRANSP  NORMAL      LOGFILE
                                          ( logfile )


 Buffered I/O statistics
 =======================
 Memory available:                     67108864
 Number of records fitting in memory:     16131
 Input :  63.4% of                         3766  *4k bytes
 Output:  43.3% of                         1789  *4k bytes
 Records from serial files evicted:           0
                    others evicted:           0
 Hash table lookups:      15645 with          0 conflicts (  0.00%)

 ***************************************************************************************************
 (LOGFILE)
 <Sep11-2012> <12:41:25>  NMR 2012.01  RunTime: Sep11-2012 12:41:25  Nodes: 1  Procs: 1
 <Sep11-2012> <12:41:25>  >>>> ZSG
 <Sep11-2012> <12:41:25>  Executing NEW zu1k
 <Sep11-2012> <12:41:25>  >>>> ZU1K
 <Sep11-2012> <12:41:26>  EXECUTING All-In-One Branch of the code
 <Sep11-2012> <12:41:27>  NMR Shielding   O(1):         -22.84 ppm
 <Sep11-2012> <12:41:27>  EXECUTING All-In-One Branch of the code
 <Sep11-2012> <12:41:27>  NMR Shielding   O(2):         -22.84 ppm
 <Sep11-2012> <12:41:27>  NORMAL TERMINATION
 <Sep11-2012> <12:41:27>  END
