
 *******************************************************************************
 *                                                                             *
 *  -------------------------------------                                      *
 *   Amsterdam Density Functional  (ADF)         2012.01   January 26, 2012    *
 *  -------------------------------------                                      *
 *                                               Build 201205311514            *
 *                                                                             *
 *                                                                             *
 *                            =====================                            *
 *                            |                   |                            *
 *                            |     D I R A C     |                            *
 *                            |                   |                            *
 *                            =====================                            *
 *                                                                             *
 *                                                                             *
 *   Online information and documentation:  http://www.scm.com                 *
 *   E-mail:  support@scm.com   info@scm.com                                   *
 *                                                                             *
 *   Scientific publications using ADF results must be properly referenced     *
 *   See the User Manuals (or the web site) for recommended citations          *
 *   The terms and conditions of the End User License Agreement apply to       *
 *   the use of ADF, http://www.scm.com/Sales/LicAgreement.html                *
 *                                                                             *
 **********************  pentium64_linux / platform_mpi  ***********************
 
 DIRAC 2012.01  RunTime: Sep11-2012 12:39:47  Nodes: 1  Procs: 1

 Temporary files are created in /scratch/kid_0.l5z5XS

1
 OXYGEN ATOM all electron RELATIVISTIC, Point Nuc, A and c fr
 N J RN H ZN XION ANUC CLIGHT
 5000    4100.00000000197.36710137  8.00000000  0.00000000   15.994914  0.1370360E+03
  PH   PHI     EPS        DEL        DELRVR
  0.30  0.30     2500.00  0.00001000  0.00001000
 IDIRC  NC1  NDEBU NPRIN  IPUN IRCOR IWCOR
   1   300     0     0     0     0     0
   XALPHA      XLATTER      RNUC
  0.70000000  0.00000000  0.00000000 Point Charge
   XN   XL   XJ      XE          XZ      XDELL
  1.0  0.0  0.5      -5.000       2.000     0.00000
  2.0  0.0  0.5      -1.000       2.000     0.00000
  2.0  1.0  0.5      -1.000       2.000     0.00000
  2.0  1.0  1.5      -1.000       2.000     0.00000
 ICORP=  0  NPCL=  0  DEMP=0.00  PEPS=0.000000
 R(1)=  0.1000000E-08 D=  0.1005080E+01 RNUC=  0.0000000E+00
 converged at cycle   28  DENSITY AVERAGING    0.2400
  MAXIMUM ERROR IN R.V(R) IS   0.81125670E-05
 Q,EY,EV,EZ,ESUM,ETOT,RHO  0.800000E+01 -0.101247E+02 -0.114961E+03 -0.177573E+03 -0.405053E+02 -0.743427E+02  0.414766E-14


 DIRAC CALCULATION
1                    OXYGEN ATOM all electron RELATIVISTIC, Point Nuc, A and c from libtc


 EXCHANGE COEFFICIENT=  0.7000000           TAIL CORRECTION=  0.           NUCLEAR RADIUS=  0.000E+00
0                       ORBITAL    N    L    J     ELECTRONS     EIGENVALUE                DELTA OF EIGENV.

                          1S1/2  1.0  0.0  0.5     2.000       -0.1880014E+02                 0.7264359E-06
                          2S1/2  2.0  0.0  0.5     2.000       -0.8412236E+00                 0.5932752E-05
                          2P1/2  2.0  1.0  0.5     2.000       -0.3063203E+00                 0.5998471E-05
                          2P3/2  2.0  1.0  1.5     2.000       -0.3049609E+00                 0.5986971E-05


                                        NUCLEAR CHARGE=    8.000000
                            INTEGRAL OF CHARGE DENSITY=    8.000000
                           SUM OF THE ORBITAL ENERGIES=    -40.5053
                                          TOTAL ENERGY=    -74.3427
                                        KINETIC ENERGY=     74.4552
                             NUCLEAR ATTRACTION ENERGY=   -177.5730
                             ELECTRON REPULSION ENERGY=     36.3686
                                       EXCHANGE ENERGY=     -7.5935

 *******************************************************************************

                             D I R A C   E X I T
 NORMAL TERMINATION



 =================
 Timing Statistics
 =================
  
 Total Used :                     CPU=        0.18      System=        0.03     Elapsed=        0.32

 Calls  Section                     ( Mean, Percentage )
 ---------------------------------------------------------------------------------------------------
     2  ><      ................      0.00    0.00             0.00    0.00             0.00    0.00
     1  EXIT PROCEDURE .........      0.18  100.00             0.03  100.00             0.32  100.00


 Currently Open Files (EXIT00)
 ====================

 Unit    Access Format  Status   Type       Ident (file)
 -------------------------------------------------------
   3      SEQ    FORM   TRANSP  NORMAL      LOGFILE
                                          ( logfile )


 Buffered I/O statistics
 =======================
 Memory available:                     67108864
 Number of records fitting in memory:     16131
 Input : 100.0% of                            0  *4k bytes
 Output: 100.0% of                            0  *4k bytes
 Records from serial files evicted:           0
                    others evicted:           0
 Hash table lookups:          0 with          0 conflicts (100.00%)
(INPUT FILE)
Create O   file=/ifs/projects/jochena/software/adf/adffix2012/atomicdata/ZORA/jcpl/O
XC
gga pbe
End
relativistic ZORA
Corepotentials t12.rel
End Input

 *******************************************************************************
 *                                                                             *
 *  -------------------------------------                                      *
 *   Amsterdam Density Functional  (ADF)         2012.01   January 26, 2012    *
 *  -------------------------------------                                      *
 *                                               Build 201205311514            *
 *                                                                             *
 *                                                                             *
 *                              =================                              *
 *                              |               |                              *
 *                              |     A D F     |                              *
 *                              |               |                              *
 *                              =================                              *
 *                                                                             *
 *                                                                             *
 *   Online information and documentation:  http://www.scm.com                 *
 *   E-mail:  support@scm.com   info@scm.com                                   *
 *                                                                             *
 *   Scientific publications using ADF results must be properly referenced     *
 *   See the User Manuals (or the web site) for recommended citations          *
 *   The terms and conditions of the End User License Agreement apply to       *
 *   the use of ADF, http://www.scm.com/Sales/LicAgreement.html                *
 *                                                                             *
 **********************  pentium64_linux / platform_mpi  ***********************
 
 ADF 2012.01  RunTime: Sep11-2012 12:39:48  Nodes: 1  Procs: 1

 Temporary files are created in /scratch/kid_0.71nhU5

 Oxygen (TZ2P +Watson 2Z 3Z 4Z 100Z)



 ===========================
 A T T A C H E D   F I L E S
 ===========================
  
 CREATE - Data File:    /ifs/projects/jochena/software/adf/adffix2012/atomicdata/ZORA/jcpl/O
                        Oxygen (TZ2P +Watson 2Z 3Z 4Z 100Z)
 Core Potentials:
         file : t12.rel



 ===============================
 M O D E L   P A R A M E T E R S
 ===============================
  
 DENSITY FUNCTIONAL POTENTIAL (scf)
    LDA:                               PW92                                    == Not Default ==
    Gradient Corrections:              PBEc PBEx                               == Not Default ==

 SPIN  (restricted / unrestr.)
    Molecule:                          Restricted                               

 OTHER ASPECTS
    Relativistic Corrections:          scalar (ZORA,SAPA)                       *** SPECIAL ***

    Nuclear Charge Density Model:      Point Charge Nuclei                                                                                                                                                                                     
    Core Treatment:                    Frozen Orbital(s)                        

    Electric Field:                    ---                                      

    Hyperfine or Zeeman Interaction:   ---                                      



 =====================================
 S Y M M E T R Y ,   E L E C T R O N S
 =====================================
  
 Symmetry: ATOM

 Irreducible Representations, including subspecies
 -------------------------------------------------
 S
 P:x  P:y  P:z
 D:z2  D:x2-y2  D:xy  D:xz  D:yz
 F:z3  F:z  F:xyz  F:z2x  F:z2y  F:x  F:y


 Configuration of Valence Electrons
 ==================================

          Occupation Numbers
          -------------------------------------------------
 S        2*2
 P        4
 D        0
 F        0
          -------------------------------------------------

 Total:   8

 Net Charge: 0 (Nuclei minus Electrons)

 Preset values for MO occupations will be applied through SCF cycle no. 1000000
 Thereafter, the program will assign electrons to MOs that are spatially
 similar to the occupied MOs in a "reference" cycle ("KeepOrbitals").
 The reference cycle is always the PREVIOUS cycle: it will evolve with
 the SCF procedure.



 ================================
 (Slater-type)  F U N C T I O N S  ***  (Basis and Fit)  ***
 ================================
  

 Atom Type    1  (O)
 ==============

 Valence Basis Sets:  14
 -----------------------
   1 S  800.000000
   1 S   32.000000
   1 S   24.000000
   1 S   16.000000
   1 S    9.800000
   1 S    6.800000
   2 S    7.580000
   2 S    2.880000
   2 S    1.720000
   2 P    4.080000
   2 P    2.080000
   2 P    1.120000
   3 D    2.000000
   4 F    3.000000

 Charge Fitting Sets (for the computation of the Coulomb Potential):  31
 -----------------------------------------------------------------------
   1 S 1600.000000
   1 S  832.000000
   1 S  824.000000
   1 S  816.000000
   1 S   64.000000
   1 S   56.000000
   1 S   48.000000
   1 S   40.000000
   1 S   32.000000
   1 S   19.600000
   2 S   22.600000
   2 S   15.680000
   2 S   10.890000
   2 S    7.560000
   3 S    7.690000
   3 S    5.650000
   3 S    4.150000
   3 S    3.050000
   3 S    2.240000
   2 P   12.860000
   2 P    7.680000
   3 P    6.780000
   3 P    4.390000
   3 P    2.840000
   3 D    8.800000
   3 D    5.580000
   3 D    3.530000
   3 D    2.240000
   4 F    6.200000
   4 F    3.700000
   5 G    4.500000


 BAS: List of all Elementary Cartesian Basis Functions
 =====================================================

 The numbering in the list below (to the right of the function characteristics) is referred
 to in print-outs of MO eigenvectors and Mulliken populations in the BAS representation
 (as contrasted to the SFO representation).

 Notes:
 1. The functions are characterized by a polynomial prefactor (powers of x,y,z and r) and
    an exponential decay factor alpha.
 2. Since the basis sets are specific for an atom TYPE, the individual functions occur on
    all atoms of that type.
 3. The word 'Core' in the left margin signals that it is a Core Function (CF) : not a
    degree of freedom in the valence set, but only used to ensure orthogonalization of
    the other valence basis functions on the frozen Core Orbitals.


 (power of) X  Y  Z  R     Alpha  on Atom
            ==========     =====     ==========

 O                                    1
                                  ---------------------------------------------------------------------------
            0  0  0  0   800.000      1
            0  0  0  0    32.000      2
            0  0  0  0    24.000      3
            0  0  0  0    16.000      4
            0  0  0  0     9.800      5
            0  0  0  0     6.800      6
            0  0  0  1     7.580      7
            0  0  0  1     2.880      8
            0  0  0  1     1.720      9
            1  0  0  0     4.080     10
            0  1  0  0     4.080     11
            0  0  1  0     4.080     12
            1  0  0  0     2.080     13
            0  1  0  0     2.080     14
            0  0  1  0     2.080     15
            1  0  0  0     1.120     16
            0  1  0  0     1.120     17
            0  0  1  0     1.120     18
            2  0  0  0     2.000     19
            1  1  0  0     2.000     20
            1  0  1  0     2.000     21
            0  2  0  0     2.000     22
            0  1  1  0     2.000     23
            0  0  2  0     2.000     24
            3  0  0  0     3.000     25
            2  1  0  0     3.000     26
            2  0  1  0     3.000     27
            1  2  0  0     3.000     28
            1  1  1  0     3.000     29
            1  0  2  0     3.000     30
            0  3  0  0     3.000     31
            0  2  1  0     3.000     32
            0  1  2  0     3.000     33
            0  0  3  0     3.000     34

 Total number of charge fitting functions (nprimf)        93
 Total number of Cartesian basis functions (naos)         34
 Total number of Cartesian core functions  (ncos)          0



 BAS: List of all Elementary Cartesian Basis Functions
 =====================================================

 The numbering in the list below (to the right of the function characteristics) is referred
 to in print-outs of MO eigenvectors and Mulliken populations in the BAS representation
 (as contrasted to the SFO representation).

 Notes:
 1. The functions are characterized by a polynomial prefactor (powers of x,y,z and r) and
    an exponential decay factor alpha.
 2. Since the basis sets are specific for an atom TYPE, the individual functions occur on
    all atoms of that type.
 3. The word 'Core' in the left margin signals that it is a Core Function (CF) : not a
    degree of freedom in the valence set, but only used to ensure orthogonalization of
    the other valence basis functions on the frozen Core Orbitals.


 (power of) X  Y  Z  R     Alpha  on Atom
            ==========     =====     ==========

 O                                    1
                                  ---------------------------------------------------------------------------
            0  0  0  0   800.000      1
            0  0  0  0    32.000      2
            0  0  0  0    24.000      3
            0  0  0  0    16.000      4
            0  0  0  0     9.800      5
            0  0  0  0     6.800      6
            0  0  0  1     7.580      7
            0  0  0  1     2.880      8
            0  0  0  1     1.720      9
            1  0  0  0     4.080     10
            0  1  0  0     4.080     11
            0  0  1  0     4.080     12
            1  0  0  0     2.080     13
            0  1  0  0     2.080     14
            0  0  1  0     2.080     15
            1  0  0  0     1.120     16
            0  1  0  0     1.120     17
            0  0  1  0     1.120     18
            2  0  0  0     2.000     19
            1  1  0  0     2.000     20
            1  0  1  0     2.000     21
            0  2  0  0     2.000     22
            0  1  1  0     2.000     23
            0  0  2  0     2.000     24
            3  0  0  0     3.000     25
            2  1  0  0     3.000     26
            2  0  1  0     3.000     27
            1  2  0  0     3.000     28
            1  1  1  0     3.000     29
            1  0  2  0     3.000     30
            0  3  0  0     3.000     31
            0  2  1  0     3.000     32
            0  1  2  0     3.000     33
            0  0  3  0     3.000     34
1
 ***************************************************************************************************



                                              ***********************
                                              *  T E C H N I C A L  *
                                              ***********************
  



 =============================================================
 P A R A L L E L I Z A T I O N  and  V E C T O R I Z A T I O N
 =============================================================
  
 Nr of parallel processes:                                1
 Maximum vector length in NumInt loops:                 128



 ===============
 I O  vs.  C P U  ***  (store numerical data on disk or recalculate)  ***
 ===============
  
 Basis functions:   recalculate when needed
 Fit functions:     recalculate when needed

 IO buffersize (Mb):                                     64.000000



 =====================
 S C F   U P D A T E S
 =====================
  
 Max. nr. of cycles:                               100
 Convergence criterion:                              0.0000000100
   secondary criterion:                              0.0000000100

 Mix parameter (when DIIS does not apply):           0.2000000000
 Special mix parameter for the first cycle:          1.0000000000


 DIIS (Direct Inversion in Iteration Space)
    Replace damping when SCF Error is below:         0.5000000000
    Apply anyway after SCF cycle:
                                                     5
    (Max.) nr. of expansion vectors:                10

    Upperbound on expansion coefficients:            5.0000000000
    (when exceeded, IterationSpace is re-built)
    2nd Upperbound on coefficients:                 25.0000000000
    (when exceeded, simple damping will be used)
 Automatic ElectronSmearing (in case of problematic SCF convergence) disabled



 =================
 P R E C I S I O N  ***  (General: NumInt, NeglectFunctionTails, ...)  ***
 =================
  

 NumInt:           Target precision:                10.0000000000
 -------           Initial precision:               10.0000000000
                   Min. precision (optimization):   10.0000000000

 Neglect Functions:          Basis functions:        0.1000000000E-11
 ------------------          Fit functions:          0.1000000000E-11



 ===========================
 L I N E A R   S C A L I N G
 ===========================
  

 Cut-off radii density fit:                        0.1000000000E-13
 Overlap cut-off criterion AO matrix elements:     0.1000000000E-11
 Cut-offs for Coulomb potential and fitted density:0.1000000000E-13
 Cut-off criterion for Coulomb multipole terms:    0.1000000000E-13
 Progressive Convergence parameter:                 0.000000000    
1
 ***************************************************************************************************



                                            ***************************
                                            *  C O M P U T A T I O N  *
                                            ***************************
  

 Number of elements of the density matrix on this node (used, total):       595       595



 ====================================================
 Numerical Integration : Voronoi Polyhedra (Te Velde)  ***  (parameters, tests)  ***
 ====================================================
  
 General Accuracy Parameter :                         10.00

 Symmetry used in the points section:  ATOM  


 Summary of the Symmetry Unique Points:
 --------------------------------------
    Nr. of used Symmetry Operators                     1

    Points in the Atomic Spheres                     104
    Points in the Atomic Polyhedra                     0
    Points in the Outer Region                         0
    ----------------------------------------------------
    Total                                            104

    Sum of Weights                                 58501.056183

 Total nr. of points:        104
 Nr. of blocks:                1
 Block length:               104
 Nr. of dummy points:          0


 Test of Precision of the Numerical Integration Grid
 ===================================================

 Integral of the Total Core Density:                   0.00000000000000



 =====
 S C F
 =====
  

 CYCLE    1
 orbitals (Q,E):
 ---------------
 S :1...9            ( 2.00   -32.0159)  ( 2.00    -7.9793)  ( 0.00    -3.4856)  ( 0.00     0.4499)
                     ( 0.00    25.4578)  ( 0.00   109.6392)  ( 0.00   410.4816)  ( 0.00  2105.1158)
                     ( 0.00 36489.4604)
 P :1...3            ( 4.00    -8.0011)  ( 0.00    -3.4871)  ( 0.00    -1.8916)
 D :1...1            ( 0.00    -3.3333)
 F :1...1            ( 0.00    -1.5001)

 CYCLE    2
 d-Pmat  mean:  0.30E+02
 imax=      6: -0.60E+03
 orbitals (Q,E):
 ---------------
 S :1...3            ( 2.00   -14.4596)  ( 2.00     0.0099)  ( 0.00     1.5830)
 P :1...2            ( 4.00     0.2218)  ( 0.00     1.2524)
 D :1...1            ( 0.00     1.5690)
 F :1...1            ( 0.00     3.9829)

 CYCLE    3
 d-Pmat  mean:  0.90E+01
 imax=      6: -0.18E+03
 orbitals (Q,E):
 ---------------
 S :1...3            ( 2.00   -16.0182)  ( 2.00    -0.3405)  ( 0.00     1.1323)
 P :1...2            ( 4.00     0.0565)  ( 0.00     0.7873)
 D :1...1            ( 0.00     1.2983)
 F :1...1            ( 0.00     3.6530)

 CYCLE    4
 d-Pmat  mean:  0.17E+01
 imax=      6: -0.32E+02
 orbitals (Q,E):
 ---------------
 S :1...3            ( 2.00   -17.1119)  ( 2.00    -0.6173)  ( 0.00     0.8700)
 P :1...2            ( 4.00    -0.1145)  ( 0.00     0.5204)
 D :1...1            ( 0.00     1.1262)
 F :1...1            ( 0.00     3.4417)

 CYCLE    5
 d-Pmat  mean:  0.15E+00
 imax=      9: -0.66E+00
 orbitals (Q,E):
 ---------------
 S :1...3            ( 2.00   -18.7267)  ( 2.00    -0.8014)  ( 0.00     0.7367)
 P :1...2            ( 4.00    -0.2563)  ( 0.00     0.3898)
 D :1...1            ( 0.00     1.1152)
 F :1...1            ( 0.00     3.4099)

 CYCLE    6
 d-Pmat  mean:  0.33E-01
 imax=      6: -0.22E+00
 orbitals (Q,E):
 ---------------
 S :1...3            ( 2.00   -18.9496)  ( 2.00    -0.8985)  ( 0.00     0.6786)
 P :1...2            ( 4.00    -0.3490)  ( 0.00     0.3456)
 D :1...1            ( 0.00     1.0578)
 F :1...1            ( 0.00     3.3411)

 CYCLE    7
 d-Pmat  mean:  0.47E-02
 imax=      8: -0.26E-01
 orbitals (Q,E):
 ---------------
 S :1...3            ( 2.00   -18.9107)  ( 2.00    -0.8800)  ( 0.00     0.6901)
 P :1...2            ( 4.00    -0.3308)  ( 0.00     0.3538)
 D :1...1            ( 0.00     1.0681)
 F :1...1            ( 0.00     3.3533)

 CYCLE    8
 d-Pmat  mean:  0.59E-03
 imax=      6:  0.46E-02
 orbitals (Q,E):
 ---------------
 S :1...3            ( 2.00   -18.9139)  ( 2.00    -0.8812)  ( 0.00     0.6894)
 P :1...2            ( 4.00    -0.3321)  ( 0.00     0.3532)
 D :1...1            ( 0.00     1.0674)
 F :1...1            ( 0.00     3.3524)

 CYCLE    9
 d-Pmat  mean:  0.47E-05
 imax=      6: -0.66E-04
 orbitals (Q,E):
 ---------------
 S :1...3            ( 2.00   -18.9139)  ( 2.00    -0.8812)  ( 0.00     0.6894)
 P :1...2            ( 4.00    -0.3321)  ( 0.00     0.3532)
 D :1...1            ( 0.00     1.0674)
 F :1...1            ( 0.00     3.3524)

 CYCLE   10
 d-Pmat  mean:  0.74E-07
 imax=      5: -0.45E-06
 orbitals (Q,E):
 ---------------
 S :1...3            ( 2.00   -18.9139)  ( 2.00    -0.8812)  ( 0.00     0.6894)
 P :1...2            ( 4.00    -0.3321)  ( 0.00     0.3532)
 D :1...1            ( 0.00     1.0674)
 F :1...1            ( 0.00     3.3524)

 CYCLE   11
 d-Pmat  mean:  0.11E-08
 imax=      6:  0.72E-08
 orbitals (Q,E):
 ---------------
 S :1...3            ( 2.00   -18.9139)  ( 2.00    -0.8812)  ( 0.00     0.6894)
 P :1...2            ( 4.00    -0.3321)  ( 0.00     0.3532)
 D :1...1            ( 0.00     1.0674)
 F :1...1            ( 0.00     3.3524)

 SCF CONVERGED

 CYCLE   12
1
 ***************************************************************************************************



                                                *******************
                                                *  R E S U L T S  *
                                                *******************
  
 *** Setting up for NEW gradients in focky
 *** Using FIT density in focky
 XCFun disabled

 Scaled ZORA Orbital Energies, per Irrep and Spin:
 =================================================
                        Occup              E (au)              E (eV)       Diff (eV) with prev. cycle
                        -----      --------------------        ------       --------------------------
 S
               1        2.000     -0.18913891175852E+02      -514.673              -2.06E-09
               2        2.000     -0.88123230396878E+00       -23.980              -3.45E-09
               3        0.000      0.68939961187279E+00        18.760
               4        0.000      0.78525016980969E+01       213.677
               5        0.000      0.35693895180971E+02       971.280
               6        0.000      0.12194180093291E+03      3318.205
               7        0.000      0.42400883950315E+03     11537.868
               8        0.000      0.21175000191389E+04     57620.107
               9        0.000      0.36487616049791E+05    992878.551
 P
               1        4.000     -0.33205088687322E+00        -9.036              -2.15E-09
               2        0.000      0.35322349971835E+00         9.612
               3        0.000      0.38375876522889E+01       104.426
 D
               1        0.000      0.10673734868130E+01        29.045
 F
               1        0.000      0.33524120637724E+01        91.224


 Partially Occupied:
               1 P                -0.33205088687322E+00
  
 HOMO :        2 S                -0.88123230396878E+00
 LUMO :        2 P                 0.35322349971835E+00
  


 Orbital Energies, all Irreps
 ========================================

 Irrep        no.  (spin)   Occup              E (au)                E (eV)
 ---------------------------------------------------------------------------
 S             1             2.00       -0.18913891175852E+02      -514.6732
 S             2             2.00       -0.88123230396878E+00       -23.9796
 P             1             4.00       -0.33205088687322E+00        -9.0356
 P             2             0.00        0.35322349971835E+00         9.6117
 S             3             0.00        0.68939961187279E+00        18.7595
 D             1             0.00        0.10673734868130E+01        29.0447
 F             1             0.00        0.33524120637724E+01        91.2238
 P             3             0.00        0.38375876522889E+01       104.4261
 S             4             0.00        0.78525016980969E+01       213.6774
 S             5             0.00        0.35693895180971E+02       971.2803
 S             6             0.00        0.12194180093291E+03      3318.2052
 S             7             0.00        0.42400883950315E+03     11537.8676
 S             8             0.00        0.21175000191389E+04     57620.1073
 S             9             0.00        0.36487616049791E+05    992878.5507


 Scaled ZORA Orbital Energies of the Core Orbitals:
 ==================================================

 (Note that the atoms are grouped by atomtype, see the labels, and may hence NOT be in input order)

 AtomType  Orbital  Atom                   E (au)                        E (eV)
 --------  -------  ----           --------------------        ----------------



 =======================================
 M U L L I K E N   P O P U L A T I O N S
 =======================================
  
 The survey below gives for each atom:
 a) the total charge (Z minus electrons)
 b) the net spin polarization (nr of electrons spin-A minus spin-B)
 c) for each spin the atomic electron valence density (integrated) per L-value.

 Atom              Charge    Spin density          S         P         D         F
 ----              ------    ------------       ------    ------    ------    ------
 1 O               0.0000                       4.0000    4.0000    0.0000    0.0000

 Populations of individual BAS functions
 ----------------------------------------
 1 O            0.0000  0.0006 -0.0008  0.0165  0.3798  1.7737 -0.2087  1.1592  0.8796  0.2472
                0.2472  0.2472  0.7501  0.7501  0.7501  0.3360  0.3360  0.3360  0.0000  0.0000
                0.0000  0.0000  0.0000  0.0000  0.0000  0.0000  0.0000  0.0000  0.0000  0.0000
                0.0000  0.0000  0.0000  0.0000

 Gross Charges per Atom (Z minus electrons)
 ==========================================
             0.0000
 Net Total:  0.00000000


 Atom-Atom Population Matrix (off-diagonal elements not doubled)
 ===============================================================

     1 :     8.0000



 =============
 Dipole Moment  ***  (Debye)  ***
 =============
  
 Vector   :         0.00000000      0.00000000      0.00000000
 Magnitude:         0.00000000

 This molecular dipole moment is calculated with analytic integration



 =========================================
 Quadrupole Moment (Buckingham convention)  ***  (a.u.)  ***
 =========================================
  
      quad-xx        quad-xy        quad-xz        quad-yy        quad-yz        quad-zz
      0.00000000     0.00000000     0.00000000     0.00000000     0.00000000     0.00000000

 This molecular quadrupole moment is calculated with analytic integration



 ===============================================================================
 Electrostatic potential at the Nuclei due to valence electrons and other nuclei
 ===============================================================================
  
         Atom                  Potential
         ----                  ---------
     1)   O                  22.26150850
 
 
 ========================
 No memory problems found
 ========================
 
 Maximum number of active allocate calls:         476
 
 *******************************************************************************

                             A D F   E X I T
 NORMAL TERMINATION



 =================
 Timing Statistics
 =================
  
 Total Used :                     CPU=        0.36      System=        0.08     Elapsed=        1.82

 Calls  Section                     ( Mean, Percentage )
 ---------------------------------------------------------------------------------------------------
     3  ><      ................      0.00    0.28             0.00    1.19             0.00    0.38
     1  INIT    ................      0.01    3.91             0.00    4.76             0.26   14.20
     1  GEOMET  ................      0.01    3.35             0.03   39.29             0.31   17.05
     1  INPUTA  ................      0.00    0.84             0.00    0.00             0.02    1.04
     1  MAINSY  ................      0.01    2.23             0.00    0.00             0.11    6.14
     1  SYMFIT  ................      0.00    0.00             0.00    0.00             0.00    0.06
     1  CORORT  ................      0.00    0.28             0.00    1.19             0.00    0.23
     1  SYMORB  ................      0.00    0.56             0.00    0.00             0.00    0.07
     1  FITINT  ................      0.01    1.96             0.00    0.00             0.01    0.62
     1  CLSMAT  ................      0.00    0.28             0.00    0.00             0.00    0.18
     1  ORTHON  ................      0.00    0.28             0.00    1.19             0.01    0.30
     1  ETALOW  ................      0.00    0.28             0.00    0.00             0.01    0.71
     1  GENPT   ................      0.02    5.03             0.00    4.76             0.03    1.78
     1  PTBAS   ................      0.00    0.56             0.00    2.38             0.01    0.53
    12  FOCKY   ................      0.02   51.40             0.00   26.19             0.07   46.70
    12  FOCKTR  ................      0.00    1.12             0.00    0.00             0.00    0.39
    12  FOCKNM  ................      0.00    0.28             0.00    0.00             0.00    0.03
    12  SDIIS   ................      0.00    2.23             0.00    7.14             0.00    1.86
    12  EMERGE  ................      0.00   14.25             0.00    8.33             0.01    3.93
     1  COREPS  ................      0.01    1.68             0.00    1.19             0.01    0.41
     1  POPAN   ................      0.00    0.84             0.00    1.19             0.01    0.33
     1  DEBYE   ................      0.00    0.28             0.00    0.00             0.02    1.16
     1  QMPOT   ................      0.00    1.12             0.00    1.19             0.01    0.28
     1  EXIT PROCEDURE .........      0.02    6.98             0.00    0.00             0.03    1.62


 Currently Open Files (EXIT00)
 ====================

 Unit    Access Format  Status   Type       Ident (file)
 -------------------------------------------------------
   3      SEQ    FORM   TRANSP  NORMAL      LOGFILE
                                          ( logfile )


 Buffered I/O statistics
 =======================
 Memory available:                     67108864
 Number of records fitting in memory:     16131
 Input :   0.9% of                         6578  *4k bytes
 Output:   8.3% of                         2773  *4k bytes
 Records from serial files evicted:           0
                    others evicted:           0
 Hash table lookups:      25427 with          0 conflicts (  0.00%)

 ***************************************************************************************************
 (LOGFILE)
 <Sep11-2012> <12:39:47>  DIRAC 2012.01  RunTime: Sep11-2012 12:39:47  Nodes: 1  Procs: 1
 <Sep11-2012> <12:39:48>  NORMAL TERMINATION
 <Sep11-2012> <12:39:48>  END
 <Sep11-2012> <12:39:48>  ADF 2012.01  RunTime: Sep11-2012 12:39:48  Nodes: 1  Procs: 1
 <Sep11-2012> <12:39:49>  Oxygen (TZ2P +Watson 2Z 3Z 4Z 100Z)
 <Sep11-2012> <12:39:49>  RunType   : CREATE
 <Sep11-2012> <12:39:49>  Net Charge: 0 (Nuclei minus Electrons)
 <Sep11-2012> <12:39:49>  Symmetry  : ATOM
 <Sep11-2012> <12:39:49>  >>>> CORORT
 <Sep11-2012> <12:39:49>  >>>> FITINT
 <Sep11-2012> <12:39:49>  >>>> CLSMAT
 <Sep11-2012> <12:39:49>  >>>> ORTHON
 <Sep11-2012> <12:39:49>  >>>> GENPT
 <Sep11-2012> <12:39:49>  Acc.Num.Int.=  10.000
 <Sep11-2012> <12:39:49>  Block Length= 104
 <Sep11-2012> <12:39:49>  >>>> PTBAS
 <Sep11-2012> <12:39:49>  >>>> CYCLE
 <Sep11-2012> <12:39:49>    1
 <Sep11-2012> <12:39:49>    2  ErrMat   8.79735956  MaxEl  3.05554331
 <Sep11-2012> <12:39:49>    3  ErrMat   3.59462366  MaxEl  1.35945719
 <Sep11-2012> <12:39:49>    4  ErrMat   3.02772377  MaxEl  1.14794302
 <Sep11-2012> <12:39:49>    5  ErrMat   2.14247174  MaxEl -0.82630402
 <Sep11-2012> <12:39:49>    6  ErrMat   0.26932744  MaxEl -0.12262504
 <Sep11-2012> <12:39:49>    7  ErrMat   0.06409393  MaxEl  0.02838546
 <Sep11-2012> <12:39:49>    8  ErrMat   0.00459352  MaxEl -0.00205826
 <Sep11-2012> <12:39:49>    9  ErrMat   0.00001419  MaxEl -0.00000495
 <Sep11-2012> <12:39:49>   10  ErrMat   0.00000071  MaxEl  0.00000032
 <Sep11-2012> <12:39:49>   11  ErrMat   0.00000001  MaxEl  0.00000000
 <Sep11-2012> <12:39:49>  SCF converged
 <Sep11-2012> <12:39:50>   12  ErrMat   0.00000000  MaxEl  0.00000000
 <Sep11-2012> <12:39:50>   Solutions with partially occupied orbitals may not be
 <Sep11-2012> <12:39:50>   lowest in energy. You might consider lowering the
 <Sep11-2012> <12:39:50>   symmetry in the input and explicitly specifying integer
 <Sep11-2012> <12:39:50>   occupations. In that case always check that you obtain
 <Sep11-2012> <12:39:50>   an aufbau solution.
 <Sep11-2012> <12:39:50>  >>>> POPAN
 <Sep11-2012> <12:39:50>  >>>> DEBYE
 <Sep11-2012> <12:39:50>  NORMAL TERMINATION
 <Sep11-2012> <12:39:50>  END
(INPUT FILE)

Atoms
O      10.1533918749    1.5037987354    5.5459454395
O       9.1660940552    1.3639542790    6.2269320718
END

UNRESTRICTED
SYMMETRY NoSym
CHARGE 0 2

XC
gga pbe
END

integration
 accint 7
 accsph 7
end

RELATIVISTIC scalar ZORA

SCF
 ITERATIONS 200
 CONVERGE 1e-7 1e-7
END

ZFS

SAVE TAPE21 TAPE10

Fragments
O t21.O
End
end input

 *******************************************************************************
 *                                                                             *
 *  -------------------------------------                                      *
 *   Amsterdam Density Functional  (ADF)         2012.01   January 26, 2012    *
 *  -------------------------------------                                      *
 *                                               Build 201205311514            *
 *                                                                             *
 *                                                                             *
 *                              =================                              *
 *                              |               |                              *
 *                              |     A D F     |                              *
 *                              |               |                              *
 *                              =================                              *
 *                                                                             *
 *                                                                             *
 *   Online information and documentation:  http://www.scm.com                 *
 *   E-mail:  support@scm.com   info@scm.com                                   *
 *                                                                             *
 *   Scientific publications using ADF results must be properly referenced     *
 *   See the User Manuals (or the web site) for recommended citations          *
 *   The terms and conditions of the End User License Agreement apply to       *
 *   the use of ADF, http://www.scm.com/Sales/LicAgreement.html                *
 *                                                                             *
 **********************  pentium64_linux / platform_mpi  ***********************
 
 ADF 2012.01  RunTime: Sep11-2012 12:39:50  Nodes: 1  Procs: 1

 Temporary files are created in /scratch/kid_0.fGnVf2

 *** (NO TITLE) ***



 ===========================
 A T T A C H E D   F I L E S
 ===========================
  



 ===============================
 M O D E L   P A R A M E T E R S
 ===============================
  
 DENSITY FUNCTIONAL POTENTIAL (scf)
    LDA:                               PW92                                    == Not Default ==
    Gradient Corrections:              PBEc PBEx                               == Not Default ==

 SPIN  (restricted / unrestr.)
    Molecule:                          UNrestricted                            == Not Default ==
    Fragments:                         Restricted                               

 OTHER ASPECTS
    Relativistic Corrections:          scalar (ZORA,SAPA)                       *** SPECIAL ***

    Nuclear Charge Density Model:      Point Charge Nuclei                                                                                                                                                                                     
    Core Treatment:                    Frozen Orbital(s)                        

    Electric Field:                    ---                                      

    Hyperfine or Zeeman Interaction:   ---                                      


 Fragment File(s)
 ----------------
 O:
         file : t21.O
         jobid: ADF 2012.01  RunTime: Sep11-2012 12:39:48  Nodes: 1  Procs: 1
         title: Oxygen (TZ2P +Watson 2Z 3Z 4Z 100Z)



                                        ************************************
                                        *  R U N   T Y P E : SINGLE POINT  *
                                        ************************************
  



 ===============
 G E O M E T R Y  ***  Linear Molecule  ***
 ===============
  

 ATOMS
 =====                            X Y Z                    CHARGE
                                (Angstrom)             Nucl     +Core       At.Mass
                       --------------------------    ----------------       -------
    1  O              10.1534    1.5038    5.5459      8.00      8.00       15.9949
    2  O               9.1661    1.3640    6.2269      8.00      8.00       15.9949


 FRAGMENTS
 =========                                     Atoms in this Fragment     Cart. coord.s (Angstrom)
                                               -------------------------------------------------------
    1  O                                                 1  O           10.1534    1.5038    5.5459
    2  O                                                 2  O            9.1661    1.3640    6.2269


 Interatomic Distance Matrix (Angstrom)
 --------------------------------------

   1)     0.000
   2)     1.208   0.000



 =====================================
 S Y M M E T R Y ,   E L E C T R O N S
 =====================================
  
 Symmetry: NOSYM

 Irreducible Representations, including subspecies
 -------------------------------------------------
 A


 Configuration of Valence Electrons
 ==================================
 ( determined in the SCF procedure )

 Total:   9 (Spin-A)  + 7 (Spin-B)

 Net Charge: 0 (Nuclei minus Electrons)
 Spin polar: 2 (Spin_A minus Spin_B electrons)

 Aufbau principle for MO occupations will be applied through SCF cycle no.      30
 Thereafter, the program will assign electrons to MOs that are spatially
 similar to the occupied MOs in a "reference" cycle ("KeepOrbitals").
 The reference cycle is always the PREVIOUS cycle: it will evolve with
 the SCF procedure.
1
 ***************************************************************************************************



                                      ****************************************
                                      *  B U I L D : (Fragments, Functions)  *
                                      ****************************************
  



 =======
 S F O s  ***  (Symmetrized Fragment Orbitals)  ***
 =======
  
 SFOs are linear combinations of (valence) Fragment Orbitals (FOs), such that the SFOs transform as the
 irreducible representations of the (molecular) symmetry group. Each SFO is therefore characterized by
 an irrep of the molecule and by a few (or only one) generating FOs.
 The SFOs constitute a symmetry-adapted basis for the Fock matrix. The MO eigenvector coefficients in
 this basis provide a direct interpretation of the MOs in terms of Frontier Orbital Theory.

 The SFOs are combined with auxiliary Core Functions (CFs) to ensure orthogonalization on the (frozen)
 Core Orbitals (COs). The Core-orthogonalized SFOs (CSFOs) constitute the true Fock basis.

 The FOs, and hence also the (C)SFOs are combinations of the elementary basis functions (BAS). The basis
 functions that participate in the description of the SFOs depend on the irrep. The indices of the
 involved functions are printed below for each irrep.
 (The complete list of primitive basis functions is printed in another section)

 Total nr. of (C)SFOs (summation over all irreps) :    60

 NOTE: a (C)SFO that is defined as a combination of more than one FO is usually NOT normalized.



                                       === A ===
 Nr. of SFOs :   60
 Cartesian basis functions that participate in this irrep (total number =    68) :
      1     2     3     4     5     6     7     8     9    10
     13    16    11    14    17    12    15    18    19    20
     21    22    23    24    25    26    27    28    29    30
     31    32    33    34    35    36    37    38    39    40
     41    42    43    44    47    50    45    48    51    46
     49    52    53    54    55    56    57    58    59    60
     61    62    63    64    65    66    67    68

    SFO  (index         Fragment          Generating    Expansion in Fragment Orbitals
  indx  incl.CFs)   Occup   Orb.Energy   FragmentType  Coeff.   Orbital     on Fragment
 --------------------------------------------------------------------------------------
     1       1      2.000     -18.929 au  O             1.00      1 S               1
                        (    -515.072 eV)
     2       2      2.000      -0.881 au  O             1.00      2 S               1
                        (     -23.982 eV)
     3       3       --         0.689 au  O             1.00      3 S               1
                        (      18.761 eV)
     4       4       --         7.857 au  O             1.00      4 S               1
                        (     213.790 eV)
     5       5       --        35.755 au  O             1.00      5 S               1
                        (     972.935 eV)
     6       6       --       122.529 au  O             1.00      6 S               1
                        (    3334.191 eV)
     7       7       --       430.346 au  O             1.00      7 S               1
                        (   11710.318 eV)
     8       8       --      2268.704 au  O             1.00      8 S               1
                        (   61734.580 eV)
     9       9       --    275975.961 au  O             1.00      9 S               1
                        ( 7509688.000 eV)
    10      10      1.333      -0.332 au  O             1.00      1 P:x             1
                        (      -9.036 eV)
    11      11       --         0.353 au  O             1.00      2 P:x             1
                        (       9.612 eV)
    12      12       --         3.839 au  O             1.00      3 P:x             1
                        (     104.458 eV)
    13      13      1.333      -0.332 au  O             1.00      1 P:y             1
                        (      -9.036 eV)
    14      14       --         0.353 au  O             1.00      2 P:y             1
                        (       9.612 eV)
    15      15       --         3.839 au  O             1.00      3 P:y             1
                        (     104.458 eV)
    16      16      1.333      -0.332 au  O             1.00      1 P:z             1
                        (      -9.036 eV)
    17      17       --         0.353 au  O             1.00      2 P:z             1
                        (       9.612 eV)
    18      18       --         3.839 au  O             1.00      3 P:z             1
                        (     104.458 eV)
    19      19       --         1.067 au  O             1.00      1 D:z2            1
                        (      29.046 eV)
    20      20       --         1.067 au  O             1.00      1 D:x2-y2         1
                        (      29.046 eV)
    21      21       --         1.067 au  O             1.00      1 D:xy            1
                        (      29.046 eV)
    22      22       --         1.067 au  O             1.00      1 D:xz            1
                        (      29.046 eV)
    23      23       --         1.067 au  O             1.00      1 D:yz            1
                        (      29.046 eV)
    24      24       --         3.353 au  O             1.00      1 F:z3            1
                        (      91.235 eV)
    25      25       --         3.353 au  O             1.00      1 F:z             1
                        (      91.235 eV)
    26      26       --         3.353 au  O             1.00      1 F:xyz           1
                        (      91.235 eV)
    27      27       --         3.353 au  O             1.00      1 F:z2x           1
                        (      91.235 eV)
    28      28       --         3.353 au  O             1.00      1 F:z2y           1
                        (      91.235 eV)
    29      29       --         3.353 au  O             1.00      1 F:x             1
                        (      91.235 eV)
    30      30       --         3.353 au  O             1.00      1 F:y             1
                        (      91.235 eV)
    31      31      2.000     -18.929 au  O             1.00      1 S               2
                        (    -515.072 eV)
    32      32      2.000      -0.881 au  O             1.00      2 S               2
                        (     -23.982 eV)
    33      33       --         0.689 au  O             1.00      3 S               2
                        (      18.761 eV)
    34      34       --         7.857 au  O             1.00      4 S               2
                        (     213.790 eV)
    35      35       --        35.755 au  O             1.00      5 S               2
                        (     972.935 eV)
    36      36       --       122.529 au  O             1.00      6 S               2
                        (    3334.191 eV)
    37      37       --       430.346 au  O             1.00      7 S               2
                        (   11710.318 eV)
    38      38       --      2268.704 au  O             1.00      8 S               2
                        (   61734.580 eV)
    39      39       --    275975.961 au  O             1.00      9 S               2
                        ( 7509688.000 eV)
    40      40      1.333      -0.332 au  O             1.00      1 P:x             2
                        (      -9.036 eV)
    41      41       --         0.353 au  O             1.00      2 P:x             2
                        (       9.612 eV)
    42      42       --         3.839 au  O             1.00      3 P:x             2
                        (     104.458 eV)
    43      43      1.333      -0.332 au  O             1.00      1 P:y             2
                        (      -9.036 eV)
    44      44       --         0.353 au  O             1.00      2 P:y             2
                        (       9.612 eV)
    45      45       --         3.839 au  O             1.00      3 P:y             2
                        (     104.458 eV)
    46      46      1.333      -0.332 au  O             1.00      1 P:z             2
                        (      -9.036 eV)
    47      47       --         0.353 au  O             1.00      2 P:z             2
                        (       9.612 eV)
    48      48       --         3.839 au  O             1.00      3 P:z             2
                        (     104.458 eV)
    49      49       --         1.067 au  O             1.00      1 D:z2            2
                        (      29.046 eV)
    50      50       --         1.067 au  O             1.00      1 D:x2-y2         2
                        (      29.046 eV)
    51      51       --         1.067 au  O             1.00      1 D:xy            2
                        (      29.046 eV)
    52      52       --         1.067 au  O             1.00      1 D:xz            2
                        (      29.046 eV)
    53      53       --         1.067 au  O             1.00      1 D:yz            2
                        (      29.046 eV)
    54      54       --         3.353 au  O             1.00      1 F:z3            2
                        (      91.235 eV)
    55      55       --         3.353 au  O             1.00      1 F:z             2
                        (      91.235 eV)
    56      56       --         3.353 au  O             1.00      1 F:xyz           2
                        (      91.235 eV)
    57      57       --         3.353 au  O             1.00      1 F:z2x           2
                        (      91.235 eV)
    58      58       --         3.353 au  O             1.00      1 F:z2y           2
                        (      91.235 eV)
    59      59       --         3.353 au  O             1.00      1 F:x             2
                        (      91.235 eV)
    60      60       --         3.353 au  O             1.00      1 F:y             2
                        (      91.235 eV)



 ================================
 (Slater-type)  F U N C T I O N S  ***  (Basis and Fit)  ***
 ================================
  

 Atom Type    1  (O)
 ==============

 Valence Basis Sets:  14
 -----------------------
   1 S  800.000000
   1 S   32.000000
   1 S   24.000000
   1 S   16.000000
   1 S    9.800000
   1 S    6.800000
   2 S    7.580000
   2 S    2.880000
   2 S    1.720000
   2 P    4.080000
   2 P    2.080000
   2 P    1.120000
   3 D    2.000000
   4 F    3.000000

 Charge Fitting Sets (for the computation of the Coulomb Potential):  31
 -----------------------------------------------------------------------
   1 S 1600.000000
   1 S  832.000000
   1 S  824.000000
   1 S  816.000000
   1 S   64.000000
   1 S   56.000000
   1 S   48.000000
   1 S   40.000000
   1 S   32.000000
   1 S   19.600000
   2 S   22.600000
   2 S   15.680000
   2 S   10.890000
   2 S    7.560000
   3 S    7.690000
   3 S    5.650000
   3 S    4.150000
   3 S    3.050000
   3 S    2.240000
   2 P   12.860000
   2 P    7.680000
   3 P    6.780000
   3 P    4.390000
   3 P    2.840000
   3 D    8.800000
   3 D    5.580000
   3 D    3.530000
   3 D    2.240000
   4 F    6.200000
   4 F    3.700000
   5 G    4.500000


 BAS: List of all Elementary Cartesian Basis Functions
 =====================================================

 The numbering in the list below (to the right of the function characteristics) is referred
 to in print-outs of MO eigenvectors and Mulliken populations in the BAS representation
 (as contrasted to the SFO representation).

 Notes:
 1. The functions are characterized by a polynomial prefactor (powers of x,y,z and r) and
    an exponential decay factor alpha.
 2. Since the basis sets are specific for an atom TYPE, the individual functions occur on
    all atoms of that type.
 3. The word 'Core' in the left margin signals that it is a Core Function (CF) : not a
    degree of freedom in the valence set, but only used to ensure orthogonalization of
    the other valence basis functions on the frozen Core Orbitals.


 (power of) X  Y  Z  R     Alpha  on Atom
            ==========     =====     ==========

 O                                    1    2
                                  ---------------------------------------------------------------------------
            0  0  0  0   800.000      1   35
            0  0  0  0    32.000      2   36
            0  0  0  0    24.000      3   37
            0  0  0  0    16.000      4   38
            0  0  0  0     9.800      5   39
            0  0  0  0     6.800      6   40
            0  0  0  1     7.580      7   41
            0  0  0  1     2.880      8   42
            0  0  0  1     1.720      9   43
            1  0  0  0     4.080     10   44
            0  1  0  0     4.080     11   45
            0  0  1  0     4.080     12   46
            1  0  0  0     2.080     13   47
            0  1  0  0     2.080     14   48
            0  0  1  0     2.080     15   49
            1  0  0  0     1.120     16   50
            0  1  0  0     1.120     17   51
            0  0  1  0     1.120     18   52
            2  0  0  0     2.000     19   53
            1  1  0  0     2.000     20   54
            1  0  1  0     2.000     21   55
            0  2  0  0     2.000     22   56
            0  1  1  0     2.000     23   57
            0  0  2  0     2.000     24   58
            3  0  0  0     3.000     25   59
            2  1  0  0     3.000     26   60
            2  0  1  0     3.000     27   61
            1  2  0  0     3.000     28   62
            1  1  1  0     3.000     29   63
            1  0  2  0     3.000     30   64
            0  3  0  0     3.000     31   65
            0  2  1  0     3.000     32   66
            0  1  2  0     3.000     33   67
            0  0  3  0     3.000     34   68

 Total number of charge fitting functions (nprimf)       186
 Total number of Cartesian basis functions (naos)         68
 Total number of Cartesian core functions  (ncos)          0

1
 ***************************************************************************************************



                                              ***********************
                                              *  T E C H N I C A L  *
                                              ***********************
  



 =============================================================
 P A R A L L E L I Z A T I O N  and  V E C T O R I Z A T I O N
 =============================================================
  
 Nr of parallel processes:                                1
 Maximum vector length in NumInt loops:                 128



 ===============
 I O  vs.  C P U  ***  (store numerical data on disk or recalculate)  ***
 ===============
  
 Basis functions:   recalculate when needed
 Fit functions:     recalculate when needed

 IO buffersize (Mb):                                     64.000000



 =====================
 S C F   U P D A T E S
 =====================
  
 Max. nr. of cycles:                               200
 Convergence criterion:                              0.0000001000
   secondary criterion:                              0.0000001000

 Mix parameter (when DIIS does not apply):           0.2000000000


 DIIS (Direct Inversion in Iteration Space)
    Replace damping when SCF Error is below:         0.5000000000
    Apply anyway after SCF cycle:
                                                     5
    (Max.) nr. of expansion vectors:                10

    Upperbound on expansion coefficients:            5.0000000000
    (when exceeded, IterationSpace is re-built)
    2nd Upperbound on coefficients:                 25.0000000000
    (when exceeded, simple damping will be used)
 Automatic ElectronSmearing (in case of problematic SCF convergence) disabled



 =================
 P R E C I S I O N  ***  (General: NumInt, NeglectFunctionTails, ...)  ***
 =================
  

 NumInt:           Target precision:                 7.0000000000
 -------           Initial precision:                7.0000000000
                   Min. precision (optimization):    4.0000000000

 Neglect Functions:          Basis functions:        0.1000000000E-08
 ------------------          Fit functions:          0.1000000000E-08



 ===========================
 L I N E A R   S C A L I N G
 ===========================
  

 Cut-off radii density fit:                        0.1000000000E-10
 Overlap cut-off criterion AO matrix elements:     0.1000000000E-08
 Cut-offs for Coulomb potential and fitted density:0.1000000000E-10
 Cut-off criterion for Coulomb multipole terms:    0.1000000000E-10
 Progressive Convergence parameter:                 0.000000000    
1
 ***************************************************************************************************



                                            ***************************
                                            *  C O M P U T A T I O N  *
                                            ***************************
  



 ==============================
 Double group spinor symmetries  ***  (Spin-Orbit)  ***
 ==============================
  

 The double group Lowdins are spinors adapted to the irreducible representations
 of the double group. These double group Lowdins are linear combinations of
 products of the single group Lowdins and the spinfunctions. The single group Lowdins are  orthonormalized symmetrized fragment orbitals (SFOs).
 The complex coefficients that are used in the linear combinations are also
 known as Clebsch-Gordan coefficients.
 The spin functions (alpha,beta) span irrep e1/2


          A * e 1/2 :      A1/2

  A1/2:1 = A.alpha
  A1/2:1 = A.beta

 The table summarizes which one-electron orbital irreps (single group) couple
 with spin to which spinor irreps (double group).
 The Clebsch-Gordan series for each direct product: orbital irrep times e1/2.
                  A
            -------
  A1/2           X


 dimension (equal to the max. nr. of electrons per spinor) of the double group irreps
 ------------------------------------------------------------------------------------
  A1/2           1

 Number of elements of the density matrix on this node (used, total):      2346      2346



 ====================================================
 Numerical Integration : Voronoi Polyhedra (Te Velde)  ***  (parameters, tests)  ***
 ====================================================
  
 General Accuracy Parameter :                          7.00

 Symmetry used in the points section:  D(LIN)


 Summary of the Symmetry Unique Points:
 --------------------------------------
    Nr. of used Symmetry Operators                     2

    Points in the Atomic Spheres                     271
    Points in the Atomic Polyhedra                   236
    Points in the Outer Region                       213
    ----------------------------------------------------
    Total                                            720

    Sum of Weights                                 63658.496387

 Total nr. of points:      23040
 Nr. of blocks:              192
 Block length:               120
 Nr. of dummy points:          0


 Test of Precision of the Numerical Integration Grid
 ===================================================

 Integral of the Total Core Density:                   0.00000000000000


 Norms of analytically-normalized, symmetry-adapted basis functions (SBAS)
 -------------------------------------------------------------------------

 Max. Error over all functions :             2.259E-06
 r.m.s. Error :                              6.078E-07



 =====
 S C F
 =====
  

 CYCLE    1
 ***** SPIN 1 *****
 orbitals (Q,E):
 ---------------
 A :1...19           ( 1.00   -18.9509)  ( 1.00   -18.9508)  ( 1.00    -1.1951)  ( 1.00    -0.7645)
                     ( 1.00    -0.5195)  ( 1.00    -0.4863)  ( 1.00    -0.4863)  ( 1.00    -0.2403)
                     ( 1.00    -0.2403)  ( 0.00     0.1053)  ( 0.00     0.2739)  ( 0.00     0.2995)
                     ( 0.00     0.2995)  ( 0.00     0.3962)  ( 0.00     0.4798)  ( 0.00     0.4798)
                     ( 0.00     0.5910)  ( 0.00     0.8465)  ( 0.00     0.8465)
 ***** SPIN 2 *****
 orbitals (Q,E):
 ---------------
 A :1...17           ( 1.00   -18.9509)  ( 1.00   -18.9508)  ( 1.00    -1.1951)  ( 1.00    -0.7645)
                     ( 1.00    -0.5195)  ( 1.00    -0.4863)  ( 1.00    -0.4863)  ( 0.00    -0.2403)
                     ( 0.00    -0.2403)  ( 0.00     0.1053)  ( 0.00     0.2739)  ( 0.00     0.2995)
                     ( 0.00     0.2995)  ( 0.00     0.3962)  ( 0.00     0.4798)  ( 0.00     0.4798)
                     ( 0.00     0.5910)
  
 Spin polar: 2 (Spin_A minus Spin_B electrons)

 CYCLE    2
 d-Pmat  mean:  0.48E-02
 imax=      6:  0.83E-01
 d-Pmat  mean:  0.68E-02
 imax=      6:  0.13E+00
 ***** SPIN 1 *****
 orbitals (Q,E):
 ---------------
 A :1...10           ( 1.00   -18.9361)  ( 1.00   -18.9361)  ( 1.00    -1.1974)  ( 1.00    -0.7575)
                     ( 1.00    -0.5104)  ( 1.00    -0.4858)  ( 1.00    -0.4858)  ( 1.00    -0.2382)
                     ( 1.00    -0.2382)  ( 0.00     0.1071)
 ***** SPIN 2 *****
 orbitals (Q,E):
 ---------------
 A :1...8            ( 1.00   -18.9314)  ( 1.00   -18.9313)  ( 1.00    -1.1888)  ( 1.00    -0.7449)
                     ( 1.00    -0.5036)  ( 1.00    -0.4726)  ( 1.00    -0.4726)  ( 0.00    -0.2222)
  
 Spin polar: 2 (Spin_A minus Spin_B electrons)

 CYCLE    3
 d-Pmat  mean:  0.10E-01
 imax=      6:  0.17E+00
 d-Pmat  mean:  0.22E-01
 imax=      6:  0.45E+00
 ***** SPIN 1 *****
 orbitals (Q,E):
 ---------------
 A :1...10           ( 1.00   -18.9263)  ( 1.00   -18.9262)  ( 1.00    -1.2143)  ( 1.00    -0.7554)
                     ( 1.00    -0.4992)  ( 1.00    -0.4984)  ( 1.00    -0.4984)  ( 1.00    -0.2503)
                     ( 1.00    -0.2503)  ( 0.00     0.1050)
 ***** SPIN 2 *****
 orbitals (Q,E):
 ---------------
 A :1...8            ( 1.00   -18.9015)  ( 1.00   -18.9015)  ( 1.00    -1.1716)  ( 1.00    -0.6910)
                     ( 1.00    -0.4650)  ( 1.00    -0.4316)  ( 1.00    -0.4316)  ( 0.00    -0.1678)
  
 Spin polar: 2 (Spin_A minus Spin_B electrons)

 CYCLE    4
 d-Pmat  mean:  0.19E-02
 imax=      6:  0.26E-01
 d-Pmat  mean:  0.35E-02
 imax=      6:  0.61E-01
 ***** SPIN 1 *****
 orbitals (Q,E):
 ---------------
 A :1...10           ( 1.00   -18.9126)  ( 1.00   -18.9125)  ( 1.00    -1.2069)  ( 1.00    -0.7505)
                     ( 1.00    -0.4934)  ( 1.00    -0.4930)  ( 1.00    -0.4930)  ( 1.00    -0.2453)
                     ( 1.00    -0.2453)  ( 0.00     0.1093)
 ***** SPIN 2 *****
 orbitals (Q,E):
 ---------------
 A :1...8            ( 1.00   -18.8869)  ( 1.00   -18.8868)  ( 1.00    -1.1634)  ( 1.00    -0.6851)
                     ( 1.00    -0.4596)  ( 1.00    -0.4251)  ( 1.00    -0.4251)  ( 0.00    -0.1610)
  
 Spin polar: 2 (Spin_A minus Spin_B electrons)

 CYCLE    5
 d-Pmat  mean:  0.81E-03
 imax=      6: -0.11E-01
 d-Pmat  mean:  0.33E-03
 imax=      6: -0.44E-02
 ***** SPIN 1 *****
 orbitals (Q,E):
 ---------------
 A :1...10           ( 1.00   -18.9167)  ( 1.00   -18.9166)  ( 1.00    -1.2102)  ( 1.00    -0.7522)
                     ( 1.00    -0.4954)  ( 1.00    -0.4954)  ( 1.00    -0.4950)  ( 1.00    -0.2476)
                     ( 1.00    -0.2476)  ( 0.00     0.1078)
 ***** SPIN 2 *****
 orbitals (Q,E):
 ---------------
 A :1...8            ( 1.00   -18.8908)  ( 1.00   -18.8907)  ( 1.00    -1.1666)  ( 1.00    -0.6864)
                     ( 1.00    -0.4611)  ( 1.00    -0.4270)  ( 1.00    -0.4270)  ( 0.00    -0.1626)
  
 Spin polar: 2 (Spin_A minus Spin_B electrons)

 CYCLE    6
 d-Pmat  mean:  0.29E-04
 imax=      6:  0.36E-03
 d-Pmat  mean:  0.97E-04
 imax=      6:  0.17E-02
 ***** SPIN 1 *****
 orbitals (Q,E):
 ---------------
 A :1...10           ( 1.00   -18.9165)  ( 1.00   -18.9164)  ( 1.00    -1.2100)  ( 1.00    -0.7521)
                     ( 1.00    -0.4953)  ( 1.00    -0.4953)  ( 1.00    -0.4949)  ( 1.00    -0.2474)
                     ( 1.00    -0.2474)  ( 0.00     0.1079)
 ***** SPIN 2 *****
 orbitals (Q,E):
 ---------------
 A :1...8            ( 1.00   -18.8905)  ( 1.00   -18.8904)  ( 1.00    -1.1663)  ( 1.00    -0.6862)
                     ( 1.00    -0.4610)  ( 1.00    -0.4268)  ( 1.00    -0.4268)  ( 0.00    -0.1624)
  
 Spin polar: 2 (Spin_A minus Spin_B electrons)

 CYCLE    7
 d-Pmat  mean:  0.62E-05
 imax=      6: -0.98E-04
 d-Pmat  mean:  0.17E-05
 imax=      6: -0.31E-04
 ***** SPIN 1 *****
 orbitals (Q,E):
 ---------------
 A :1...10           ( 1.00   -18.9165)  ( 1.00   -18.9164)  ( 1.00    -1.2100)  ( 1.00    -0.7521)
                     ( 1.00    -0.4953)  ( 1.00    -0.4953)  ( 1.00    -0.4949)  ( 1.00    -0.2474)
                     ( 1.00    -0.2474)  ( 0.00     0.1079)
 ***** SPIN 2 *****
 orbitals (Q,E):
 ---------------
 A :1...8            ( 1.00   -18.8905)  ( 1.00   -18.8904)  ( 1.00    -1.1663)  ( 1.00    -0.6863)
                     ( 1.00    -0.4610)  ( 1.00    -0.4269)  ( 1.00    -0.4269)  ( 0.00    -0.1624)
  
 Spin polar: 2 (Spin_A minus Spin_B electrons)

 CYCLE    8
 d-Pmat  mean:  0.48E-07
 imax=     40: -0.68E-06
 d-Pmat  mean:  0.18E-06
 imax=      6:  0.32E-05
 ***** SPIN 1 *****
 orbitals (Q,E):
 ---------------
 A :1...10           ( 1.00   -18.9165)  ( 1.00   -18.9164)  ( 1.00    -1.2100)  ( 1.00    -0.7521)
                     ( 1.00    -0.4953)  ( 1.00    -0.4953)  ( 1.00    -0.4949)  ( 1.00    -0.2474)
                     ( 1.00    -0.2474)  ( 0.00     0.1079)
 ***** SPIN 2 *****
 orbitals (Q,E):
 ---------------
 A :1...8            ( 1.00   -18.8905)  ( 1.00   -18.8904)  ( 1.00    -1.1663)  ( 1.00    -0.6863)
                     ( 1.00    -0.4610)  ( 1.00    -0.4269)  ( 1.00    -0.4269)  ( 0.00    -0.1624)
  
 Spin polar: 2 (Spin_A minus Spin_B electrons)

 CYCLE    9
 d-Pmat  mean:  0.12E-07
 imax=      6: -0.79E-07
 d-Pmat  mean:  0.20E-07
 imax=     40:  0.31E-06
 ***** SPIN 1 *****
 orbitals (Q,E):
 ---------------
 A :1...10           ( 1.00   -18.9165)  ( 1.00   -18.9164)  ( 1.00    -1.2100)  ( 1.00    -0.7521)
                     ( 1.00    -0.4953)  ( 1.00    -0.4953)  ( 1.00    -0.4949)  ( 1.00    -0.2474)
                     ( 1.00    -0.2474)  ( 0.00     0.1079)
 ***** SPIN 2 *****
 orbitals (Q,E):
 ---------------
 A :1...8            ( 1.00   -18.8905)  ( 1.00   -18.8904)  ( 1.00    -1.1663)  ( 1.00    -0.6863)
                     ( 1.00    -0.4610)  ( 1.00    -0.4269)  ( 1.00    -0.4269)  ( 0.00    -0.1624)
  
 Spin polar: 2 (Spin_A minus Spin_B electrons)

 SCF CONVERGED

 CYCLE   10
1
 ***************************************************************************************************



                                                *******************
                                                *  R E S U L T S  *
                                                *******************
  
 *** Setting up for NEW gradients in focky
 *** Using FIT density in focky


                                   ***** SPIN 1 *****

 Scaled ZORA Orbital Energies, per Irrep and Spin:
 =================================================
                        Occup              E (au)              E (eV)       Diff (eV) with prev. cycle
                        -----      --------------------        ------       --------------------------
 A
               1        1.000     -0.18916486752891E+02      -514.744               1.59E-07
               2        1.000     -0.18916411557259E+02      -514.742               1.52E-07
               3        1.000     -0.12099845257745E+01       -32.925               1.81E-07
               4        1.000     -0.75207393320673E+00       -20.465               3.94E-08
               5        1.000     -0.49526171342055E+00       -13.477               1.29E-07
               6        1.000     -0.49526171340448E+00       -13.477               1.29E-07
               7        1.000     -0.49487190595337E+00       -13.466               6.10E-09
               8        1.000     -0.24740468122695E+00        -6.732               1.12E-07
               9        1.000     -0.24740468122501E+00        -6.732               1.12E-07
              10        0.000      0.10786439917129E+00         2.935
              11        0.000      0.28861411579992E+00         7.854
              12        0.000      0.29726277133425E+00         8.089
              13        0.000      0.29726277134655E+00         8.089
              14        0.000      0.40538809343307E+00        11.031
              15        0.000      0.47806974492692E+00        13.009
              16        0.000      0.47806974493748E+00        13.009
              17        0.000      0.60095767910293E+00        16.353
              18        0.000      0.84126886350323E+00        22.892
              19        0.000      0.84126886352120E+00        22.892
  
 HOMO :        9 A                -0.24740468122501E+00
 LUMO :       10 A                 0.10786439917129E+00
  


                                   ***** SPIN 2 *****

 Scaled ZORA Orbital Energies, per Irrep and Spin:
 =================================================
                        Occup              E (au)              E (eV)       Diff (eV) with prev. cycle
                        -----      --------------------        ------       --------------------------
 A
               1        1.000     -0.18890483551338E+02      -514.036               1.74E-07
               2        1.000     -0.18890405239015E+02      -514.034               1.68E-07
               3        1.000     -0.11663131501898E+01       -31.737               9.87E-08
               4        1.000     -0.68625596520826E+00       -18.674               1.59E-07
               5        1.000     -0.46097350929437E+00       -12.544               1.62E-07
               6        1.000     -0.42685169234947E+00       -11.615               1.18E-07
               7        1.000     -0.42685169233193E+00       -11.615               1.18E-07
               8        0.000     -0.16242284682314E+00        -4.420
               9        0.000     -0.16242284682038E+00        -4.420
              10        0.000      0.13438691050035E+00         3.657
              11        0.000      0.31311675250286E+00         8.520
              12        0.000      0.32648287583658E+00         8.884
              13        0.000      0.32648287584265E+00         8.884
              14        0.000      0.41141713767165E+00        11.195
              15        0.000      0.51495809743346E+00        14.013
              16        0.000      0.51495809744128E+00        14.013
              17        0.000      0.63044068081608E+00        17.155
  
 HOMO :        7 A                -0.42685169233193E+00
 LUMO :        8 A                -0.16242284682314E+00
  


 Orbital Energies, both Spins
 ========================================

 Irrep        no.  (spin)   Occup              E (au)                E (eV)
 ---------------------------------------------------------------------------
 A             1     A       1.00       -0.18916486752891E+02      -514.7438
 A             2     A       1.00       -0.18916411557259E+02      -514.7417
 A             1      B      1.00       -0.18890483551338E+02      -514.0362
 A             2      B      1.00       -0.18890405239015E+02      -514.0341
 A             3     A       1.00       -0.12099845257745E+01       -32.9254
 A             3      B      1.00       -0.11663131501898E+01       -31.7370
 A             4     A       1.00       -0.75207393320673E+00       -20.4650
 A             4      B      1.00       -0.68625596520826E+00       -18.6740
 A             5     A       1.00       -0.49526171342055E+00       -13.4768
 A             6     A       1.00       -0.49526171340448E+00       -13.4768
 A             7     A       1.00       -0.49487190595337E+00       -13.4661
 A             5      B      1.00       -0.46097350929437E+00       -12.5437
 A             6      B      1.00       -0.42685169234947E+00       -11.6152
 A             7      B      1.00       -0.42685169233193E+00       -11.6152
 A             8     A       1.00       -0.24740468122695E+00        -6.7322
 A             9     A       1.00       -0.24740468122501E+00        -6.7322
 A             8      B      0.00       -0.16242284682314E+00        -4.4198
 A             9      B      0.00       -0.16242284682038E+00        -4.4198
 A            10     A       0.00        0.10786439917129E+00         2.9351
 A            10      B      0.00        0.13438691050035E+00         3.6569
 A            11     A       0.00        0.28861411579992E+00         7.8536
 A            12     A       0.00        0.29726277133425E+00         8.0889
 A            13     A       0.00        0.29726277134655E+00         8.0889
 A            11      B      0.00        0.31311675250286E+00         8.5203
 A            12      B      0.00        0.32648287583658E+00         8.8841
 A            13      B      0.00        0.32648287584265E+00         8.8841
 A            14     A       0.00        0.40538809343307E+00        11.0312
 A            14      B      0.00        0.41141713767165E+00        11.1952
 A            15     A       0.00        0.47806974492692E+00        13.0089
 A            16     A       0.00        0.47806974493748E+00        13.0089
 A            15      B      0.00        0.51495809743346E+00        14.0127
 A            16      B      0.00        0.51495809744128E+00        14.0127
 A            17     A       0.00        0.60095767910293E+00        16.3529
 A            17      B      0.00        0.63044068081608E+00        17.1552
 A            18     A       0.00        0.84126886350323E+00        22.8921
 A            19     A       0.00        0.84126886352120E+00        22.8921
 A            18      B      0.00        0.88276214314352E+00        24.0212
 A            19      B      0.00        0.88276214316134E+00        24.0212
 A            20     A       0.00        0.10238481781436E+01        27.8603
 A            21     A       0.00        0.10238481781729E+01        27.8603
 A            20      B      0.00        0.10503001405326E+01        28.5801
 A            21      B      0.00        0.10503001405606E+01        28.5801
 A            22     A       0.00        0.13296589612319E+01        36.1819
 A            23     A       0.00        0.13296589612366E+01        36.1819
 A            24     A       0.00        0.13411344700404E+01        36.4941
 A            22      B      0.00        0.13814488509737E+01        37.5911
 A            23      B      0.00        0.13910598236019E+01        37.8527
 A            24      B      0.00        0.13910598236077E+01        37.8527
 A            25     A       0.00        0.17842312097472E+01        48.5514
 A            25      B      0.00        0.18126270509567E+01        49.3241
 A            26     A       0.00        0.19180670703113E+01        52.1933
 A            26      B      0.00        0.19508650098889E+01        53.0857
 A            27     A       0.00        0.20323194119990E+01        55.3022
 A            28     A       0.00        0.20323194120182E+01        55.3022
 A            27      B      0.00        0.20714699031767E+01        56.3676
 A            28      B      0.00        0.20714699031821E+01        56.3676
 A            29     A       0.00        0.30208478208903E+01        82.2015
 A            30     A       0.00        0.30208478209369E+01        82.2015
 A            31     A       0.00        0.30533203152097E+01        83.0851
 A            32     A       0.00        0.30533203152186E+01        83.0851
 A            29      B      0.00        0.30558834229697E+01        83.1548
 A            30      B      0.00        0.30558834229972E+01        83.1548
 A            31      B      0.00        0.31124848741939E+01        84.6950
 A            32      B      0.00        0.31124848742067E+01        84.6950
 A            33     A       0.00        0.32984578756980E+01        89.7556
 A            33      B      0.00        0.33264752993789E+01        90.5180
 A            34     A       0.00        0.34830452322916E+01        94.7785
 A            35     A       0.00        0.34830452323220E+01        94.7785
 A            34      B      0.00        0.35235258749529E+01        95.8800
 A            35      B      0.00        0.35235258749697E+01        95.8800
 A            36     A       0.00        0.36362810740164E+01        98.9482
 A            37     A       0.00        0.36362810740280E+01        98.9482
 A            36      B      0.00        0.37077008422181E+01       100.8917
 A            37      B      0.00        0.37077008422340E+01       100.8917
 A            38     A       0.00        0.37445645911879E+01       101.8948
 A            39     A       0.00        0.37445645911975E+01       101.8948
 A            40     A       0.00        0.37885099641029E+01       103.0906
 A            41     A       0.00        0.37885099641088E+01       103.0906
 A            38      B      0.00        0.38125820291030E+01       103.7456
 A            39      B      0.00        0.38125820291086E+01       103.7456
 A            40      B      0.00        0.38524173507955E+01       104.8296
[...]
                                   48.52%     1 P:y            -9.036  1.33     1 O
     -13.467  1.00     7 A         25.36%     1 P:x            -9.036  1.33     1 O
                                   25.36%     1 P:x            -9.036  1.33     2 O
                                   12.07%     1 P:z            -9.036  1.33     2 O
                                   12.07%     1 P:z            -9.036  1.33     1 O
                                   10.07%     2 S             -23.982  2.00     1 O
                                   10.07%     2 S             -23.982  2.00     2 O
                                    1.00%     2 P:x             9.612  0.00     1 O
                                    1.00%     2 P:x             9.612  0.00     2 O
      -6.733  1.00     8 A         33.95%     1 P:z            -9.036  1.33     1 O
                                   33.95%     1 P:z            -9.036  1.33     2 O
                                   14.75%     1 P:x            -9.036  1.33     1 O
                                   14.75%     1 P:x            -9.036  1.33     2 O
                                    1.58%     1 P:y            -9.036  1.33     1 O
                                    1.58%     1 P:y            -9.036  1.33     2 O
      -6.733  1.00     9 A         48.03%     1 P:y            -9.036  1.33     1 O
                                   48.03%     1 P:y            -9.036  1.33     2 O
                                    1.91%     1 P:x            -9.036  1.33     1 O
                                    1.91%     1 P:x            -9.036  1.33     2 O
       2.935  0.00    10 A         30.27%     1 P:x            -9.036  1.33     1 O
                                   30.27%     1 P:x            -9.036  1.33     2 O
                                   14.40%     1 P:z            -9.036  1.33     1 O
                                   14.40%     1 P:z            -9.036  1.33     2 O
                                  -13.93%     3 S              18.761  0.00     2 O
                                  -13.93%     3 S              18.761  0.00     1 O
                                    9.96%     2 S             -23.982  2.00     1 O
                                    9.96%     2 S             -23.982  2.00     2 O
                                    7.46%     2 P:x             9.612  0.00     1 O
                                    7.46%     2 P:x             9.612  0.00     2 O
                                    3.55%     2 P:z             9.612  0.00     1 O
                                    3.55%     2 P:z             9.612  0.00     2 O
                                   -1.26%     3 P:x           104.458  0.00     2 O
                                   -1.26%     3 P:x           104.458  0.00     1 O
       7.854  0.00    11 A         38.38%     2 P:x             9.612  0.00     1 O
                                   38.38%     2 P:x             9.612  0.00     2 O
                                   18.26%     2 P:z             9.612  0.00     1 O
                                   18.26%     2 P:z             9.612  0.00     2 O
                                   -5.74%     3 S              18.761  0.00     2 O
                                   -5.74%     3 S              18.761  0.00     1 O
                                   -5.04%     2 S             -23.982  2.00     2 O
                                   -5.04%     2 S             -23.982  2.00     1 O
                                    3.77%     1 D:xz           29.046  0.00     2 O
                                    3.77%     1 D:xz           29.046  0.00     1 O
                                   -2.39%     1 P:x            -9.036  1.33     1 O
                                   -2.39%     1 P:x            -9.036  1.33     2 O
                                    1.90%     1 D:x2-y2        29.046  0.00     2 O
                                    1.90%     1 D:x2-y2        29.046  0.00     1 O
                                   -1.14%     1 P:z            -9.036  1.33     1 O
                                   -1.14%     1 P:z            -9.036  1.33     2 O
       8.089  0.00    12 A         30.42%     2 P:z             9.612  0.00     2 O
                                   30.42%     2 P:z             9.612  0.00     1 O
                                   11.62%     2 P:x             9.612  0.00     2 O
                                   11.62%     2 P:x             9.612  0.00     1 O
                                    7.79%     2 P:y             9.612  0.00     2 O
                                    7.79%     2 P:y             9.612  0.00     1 O
       8.089  0.00    13 A         41.37%     2 P:y             9.612  0.00     2 O
                                   41.37%     2 P:y             9.612  0.00     1 O
                                    4.90%     2 P:x             9.612  0.00     2 O
                                    4.90%     2 P:x             9.612  0.00     1 O
                                    3.56%     2 P:z             9.612  0.00     2 O
                                    3.56%     2 P:z             9.612  0.00     1 O


                                       *** SPIN 2 ***


       E(eV)  Occ       MO           %     SFO (first member)   E(eV)  Occ   Fragment
 -------------------------------------------------------------------------------------

     -18.676  1.00     4 A         43.20%     2 S             -23.982  2.00     2 O
                                   43.20%     2 S             -23.982  2.00     1 O
                                    4.96%     1 P:x            -9.036  1.33     2 O
                                    4.96%     1 P:x            -9.036  1.33     1 O
                                    2.36%     1 P:z            -9.036  1.33     2 O
                                    2.36%     1 P:z            -9.036  1.33     1 O
     -12.545  1.00     5 A         24.74%     1 P:x            -9.036  1.33     1 O
                                   24.74%     1 P:x            -9.036  1.33     2 O
                                   11.77%     1 P:z            -9.036  1.33     1 O
                                   11.77%     1 P:z            -9.036  1.33     2 O
                                   11.18%     2 S             -23.982  2.00     1 O
                                   11.18%     2 S             -23.982  2.00     2 O
     -11.616  1.00     6 A         33.35%     1 P:z            -9.036  1.33     2 O
                                   33.35%     1 P:z            -9.036  1.33     1 O
                                   15.02%     1 P:x            -9.036  1.33     2 O
                                   15.02%     1 P:x            -9.036  1.33     1 O
     -11.616  1.00     7 A         47.71%     1 P:y            -9.036  1.33     2 O
                                   47.71%     1 P:y            -9.036  1.33     1 O
                                    1.21%     1 P:x            -9.036  1.33     2 O
                                    1.21%     1 P:x            -9.036  1.33     1 O
      -4.420  0.00     8 A         34.73%     1 P:z            -9.036  1.33     1 O
                                   34.73%     1 P:z            -9.036  1.33     2 O
                                   15.03%     1 P:x            -9.036  1.33     1 O
                                   15.03%     1 P:x            -9.036  1.33     2 O
                                    1.76%     1 P:y            -9.036  1.33     1 O
                                    1.76%     1 P:y            -9.036  1.33     2 O
                                   -1.16%     2 P:z             9.612  0.00     2 O
                                   -1.16%     2 P:z             9.612  0.00     1 O
      -4.420  0.00     9 A         49.06%     1 P:y            -9.036  1.33     1 O
                                   49.06%     1 P:y            -9.036  1.33     2 O
                                    2.05%     1 P:x            -9.036  1.33     1 O
                                    2.05%     1 P:x            -9.036  1.33     2 O
                                   -1.65%     2 P:y             9.612  0.00     2 O
                                   -1.65%     2 P:y             9.612  0.00     1 O
       3.657  0.00    10 A         28.41%     1 P:x            -9.036  1.33     1 O
                                   28.41%     1 P:x            -9.036  1.33     2 O
                                  -17.16%     3 S              18.761  0.00     1 O
                                  -17.16%     3 S              18.761  0.00     2 O
                                   13.52%     1 P:z            -9.036  1.33     1 O
                                   13.52%     1 P:z            -9.036  1.33     2 O
                                   12.39%     2 S             -23.982  2.00     1 O
                                   12.39%     2 S             -23.982  2.00     2 O
                                   10.79%     2 P:x             9.612  0.00     2 O
                                   10.79%     2 P:x             9.612  0.00     1 O
                                    5.13%     2 P:z             9.612  0.00     2 O
                                    5.13%     2 P:z             9.612  0.00     1 O
                                   -1.48%     3 P:x           104.458  0.00     1 O
                                   -1.48%     3 P:x           104.458  0.00     2 O
                                   -1.01%     1 D:xz           29.046  0.00     1 O
                                   -1.01%     1 D:xz           29.046  0.00     2 O



 ====================
 ZERO FIELD SPLITTING  ***  ZFS, ESR D-TENSOR  ***
 ====================
  

 References for the spin-orbit part:

    M. R. Pederson, S.N. Khanna Phys Rev. B 60, 9566 (1999) 
    F. Neese J. Chem. Phys. 127, 164112 (2007)
    C. van W"ullen J. Chem. Phys. 130, 194109 (2009)
    S. Schmitt, P. Jost, C. van W"ullen J. Chem. Phys. 134, 194113 (2011)


 ===== D-tensor (ZFS) in original axis system (cm-1)
           X             Y             Z 
     X    0.659659     -0.186353     -0.907466
     Y   -0.186353     -0.629593      0.128537
     Z   -0.907466      0.128537     -0.030066

 ===== principal axes D-tensor (ZFS)
           11            22            33
     X    0.539950      0.199805      0.817638
     Y   -0.185698      0.975758     -0.115813
     Z    0.820957      0.089301     -0.563964
 ==== principal values D-tensor
          D11           D22           D33
         -0.298891E-05 -0.298891E-05  0.597781E-05  a.u.
         -0.655989E+00 -0.655989E+00  0.131198E+01  cm-1

 ZFS D=   1.967967 cm-1,  E=  0.000000 cm-1



 ===============================================================================
 Electrostatic potential at the Nuclei due to valence electrons and other nuclei
 ===============================================================================
  
         Atom                  Potential
         ----                  ---------
     1)   O                  22.26248551
     2)   O                  22.26248551
 
 
 ========================
 No memory problems found
 ========================
 
 Maximum number of active allocate calls:         854
 
 *******************************************************************************

                             A D F   E X I T
 NORMAL TERMINATION



 =================
 Timing Statistics
 =================
  
 Total Used :                     CPU=        7.71      System=        0.11     Elapsed=        7.97

 Calls  Section                     ( Mean, Percentage )
 ---------------------------------------------------------------------------------------------------
     3  ><      ................      0.00    0.00             0.00    0.87             0.00    0.09
     1  INIT    ................      0.01    0.17             0.00    2.61             0.03    0.38
     1  GEOMET  ................      0.01    0.08             0.03   29.57             0.05    0.65
     1  FRAGM   ................      0.01    0.14             0.00    2.61             0.02    0.20
     1  INPUTA  ................      0.00    0.00             0.00    0.00             0.00    0.00
     1  ATDEN   ................      0.00    0.05             0.00    0.87             0.00    0.06
     1  MAINSY  ................      0.01    0.06             0.00    0.87             0.01    0.12
     1  SYMFIT  ................      0.00    0.01             0.00    0.00             0.00    0.02
     1  CORORT  ................      0.00    0.01             0.00    0.00             0.00    0.03
     1  SYMORB  ................      0.00    0.01             0.00    0.00             0.00    0.02
     1  FITINT  ................      0.09    1.21             0.00    0.87             0.10    1.19
     1  CLSMAT  ................      0.00    0.01             0.00    0.00             0.00    0.04
     1  ORTHON  ................      0.00    0.05             0.00    1.74             0.03    0.35
     1  ETALOW  ................      0.00    0.00             0.00    0.00             0.00    0.01
     1  GENPT   ................      0.06    0.80             0.00    3.48             0.07    0.90
     1  PTBAS   ................      0.89   11.57             0.00    4.35             0.90   11.28
    10  FOCKY   ................      0.46   59.48             0.00   29.57             0.46   58.20
    10  FOCKTR  ................      0.00    0.12             0.00    0.00             0.00    0.11
    10  FOCKNM  ................      0.00    0.01             0.00    0.00             0.00    0.01
    10  SDIIS   ................      0.00    0.19             0.00    4.35             0.00    0.53
    10  EMERGE  ................      0.01    0.90             0.00    1.74             0.01    0.94
     1  COREPS  ................      0.37    4.79             0.00    0.87             0.37    4.66
     1  TOTEN   ................      1.51   19.55             0.01    6.09             1.52   19.05
     1  POPAN   ................      0.00    0.03             0.00    0.87             0.01    0.08
     1  DEBYE   ................      0.01    0.08             0.00    1.74             0.01    0.13
     1  INPUTE  ................      0.00    0.01             0.00    0.00             0.00    0.01
     1  SYMORE  ................      0.00    0.00             0.00    0.00             0.00    0.01
     4  METS    ................      0.00    0.03             0.00    0.00             0.00    0.04
     1  CETS    ................      0.00    0.04             0.00    0.00             0.00    0.04
     1  ELNRGY  ................      0.00    0.04             0.00    0.87             0.00    0.05
     1  POPUL   ................      0.01    0.10             0.00    0.87             0.02    0.22
     1  QMPOT   ................      0.01    0.10             0.00    0.00             0.01    0.14
     1  EXIT PROCEDURE .........      0.03    0.34             0.01    5.22             0.04    0.44


 Currently Open Files (EXIT00)
 ====================

 Unit    Access Format  Status   Type       Ident (file)
 -------------------------------------------------------
   3      SEQ    FORM   TRANSP  NORMAL      LOGFILE
                                          ( logfile )


 Buffered I/O statistics
 =======================
 Memory available:                     67108864
 Number of records fitting in memory:     16131
 Input :   0.8% of                        21577  *4k bytes
 Output:  15.3% of                         7814  *4k bytes
 Records from serial files evicted:           0
                    others evicted:           0
 Hash table lookups:      81629 with          0 conflicts (  0.00%)

 ***************************************************************************************************
 (LOGFILE)
 <Sep11-2012> <12:39:47>  DIRAC 2012.01  RunTime: Sep11-2012 12:39:47  Nodes: 1  Procs: 1
 <Sep11-2012> <12:39:48>  NORMAL TERMINATION
 <Sep11-2012> <12:39:48>  END
 <Sep11-2012> <12:39:48>  ADF 2012.01  RunTime: Sep11-2012 12:39:48  Nodes: 1  Procs: 1
 <Sep11-2012> <12:39:49>  Oxygen (TZ2P +Watson 2Z 3Z 4Z 100Z)
 <Sep11-2012> <12:39:49>  RunType   : CREATE
 <Sep11-2012> <12:39:49>  Net Charge: 0 (Nuclei minus Electrons)
 <Sep11-2012> <12:39:49>  Symmetry  : ATOM
 <Sep11-2012> <12:39:49>  >>>> CORORT
 <Sep11-2012> <12:39:49>  >>>> FITINT
 <Sep11-2012> <12:39:49>  >>>> CLSMAT
 <Sep11-2012> <12:39:49>  >>>> ORTHON
 <Sep11-2012> <12:39:49>  >>>> GENPT
 <Sep11-2012> <12:39:49>  Acc.Num.Int.=  10.000
 <Sep11-2012> <12:39:49>  Block Length= 104
 <Sep11-2012> <12:39:49>  >>>> PTBAS
 <Sep11-2012> <12:39:49>  >>>> CYCLE
 <Sep11-2012> <12:39:49>    1
 <Sep11-2012> <12:39:49>    2  ErrMat   8.79735956  MaxEl  3.05554331
 <Sep11-2012> <12:39:49>    3  ErrMat   3.59462366  MaxEl  1.35945719
 <Sep11-2012> <12:39:49>    4  ErrMat   3.02772377  MaxEl  1.14794302
 <Sep11-2012> <12:39:49>    5  ErrMat   2.14247174  MaxEl -0.82630402
 <Sep11-2012> <12:39:49>    6  ErrMat   0.26932744  MaxEl -0.12262504
 <Sep11-2012> <12:39:49>    7  ErrMat   0.06409393  MaxEl  0.02838546
 <Sep11-2012> <12:39:49>    8  ErrMat   0.00459352  MaxEl -0.00205826
 <Sep11-2012> <12:39:49>    9  ErrMat   0.00001419  MaxEl -0.00000495
 <Sep11-2012> <12:39:49>   10  ErrMat   0.00000071  MaxEl  0.00000032
 <Sep11-2012> <12:39:49>   11  ErrMat   0.00000001  MaxEl  0.00000000
 <Sep11-2012> <12:39:49>  SCF converged
 <Sep11-2012> <12:39:50>   12  ErrMat   0.00000000  MaxEl  0.00000000
 <Sep11-2012> <12:39:50>   Solutions with partially occupied orbitals may not be
 <Sep11-2012> <12:39:50>   lowest in energy. You might consider lowering the
 <Sep11-2012> <12:39:50>   symmetry in the input and explicitly specifying integer
 <Sep11-2012> <12:39:50>   occupations. In that case always check that you obtain
 <Sep11-2012> <12:39:50>   an aufbau solution.
 <Sep11-2012> <12:39:50>  >>>> POPAN
 <Sep11-2012> <12:39:50>  >>>> DEBYE
 <Sep11-2012> <12:39:50>  NORMAL TERMINATION
 <Sep11-2012> <12:39:50>  END
 <Sep11-2012> <12:39:50>  ADF 2012.01  RunTime: Sep11-2012 12:39:50  Nodes: 1  Procs: 1
 <Sep11-2012> <12:39:50>  *** (NO TITLE) ***
 <Sep11-2012> <12:39:50>  RunType   : SINGLE POINT
 <Sep11-2012> <12:39:50>  Net Charge: 0 (Nuclei minus Electrons)
 <Sep11-2012> <12:39:50>  Spin polar: 2 (Spin_A minus Spin_B electrons)
 <Sep11-2012> <12:39:50>  Symmetry  : NOSYM
 <Sep11-2012> <12:39:50>  >>>> FRAGM
 <Sep11-2012> <12:39:50>  >>>> CORORT
 <Sep11-2012> <12:39:50>  >>>> FITINT
 <Sep11-2012> <12:39:51>  >>>> CLSMAT
 <Sep11-2012> <12:39:51>  >>>> ORTHON
 <Sep11-2012> <12:39:51>  >>>> GENPT
 <Sep11-2012> <12:39:51>  Acc.Num.Int.=   7.000
 <Sep11-2012> <12:39:51>  Block Length= 120
 <Sep11-2012> <12:39:51>  >>>> PTBAS
 <Sep11-2012> <12:39:52>  >>>> CYCLE
 <Sep11-2012> <12:39:52>    1
 <Sep11-2012> <12:39:52>    2  ErrMat   0.14777837  MaxEl -0.03106632
 <Sep11-2012> <12:39:53>    3  ErrMat   0.10623303  MaxEl -0.02255747
 <Sep11-2012> <12:39:53>    4  ErrMat   0.01581847  MaxEl -0.00356730
 <Sep11-2012> <12:39:54>    5  ErrMat   0.00764408  MaxEl  0.00136398
 <Sep11-2012> <12:39:54>    6  ErrMat   0.00049623  MaxEl -0.00010349
 <Sep11-2012> <12:39:55>    7  ErrMat   0.00003028  MaxEl  0.00000675
 <Sep11-2012> <12:39:55>    8  ErrMat   0.00000074  MaxEl -0.00000015
 <Sep11-2012> <12:39:56>    9  ErrMat   0.00000019  MaxEl -0.00000006
 <Sep11-2012> <12:39:56>  SCF converged
 <Sep11-2012> <12:39:56>   10  ErrMat   0.00000054  MaxEl  0.00000019
 <Sep11-2012> <12:39:57>  >>>> TOTEN
 <Sep11-2012> <12:39:58>  >>>> POPAN
 <Sep11-2012> <12:39:58>  >>>> DEBYE
 <Sep11-2012> <12:39:58>  >>>> AMETS
 <Sep11-2012> <12:39:58>   Bond Energy          -0.36363768 a.u.
 <Sep11-2012> <12:39:58>   Bond Energy          -9.89508481 eV
 <Sep11-2012> <12:39:58>   Bond Energy        -228.19       kcal/mol
 <Sep11-2012> <12:39:58>  >>>> POPUL
 <Sep11-2012> <12:39:58>  >>>> ZFS
 <Sep11-2012> <12:39:58>  NORMAL TERMINATION
 <Sep11-2012> <12:39:58>  END
